MODEL 1
REMARK VINA RESULT:    -2.029      0.000      0.000
REMARK INTER + INTRA:          -2.029
REMARK INTER:                  -2.029
REMARK INTRA:                   0.000
REMARK UNBOUND:                 0.000
REMARK  Name = CT1001562328
REMARK  0 active torsions:
REMARK  status: ('A' for Active; 'I' for Inactive)
REMARK                            x       y       z     vdW  Elec       q    Type
REMARK                         _______ _______ _______ _____ _____    ______ ____
ROOT
ATOM      1  C   UNL     1       2.666   3.403   1.125  0.00  0.00    +0.000 C 
ATOM      2  O   UNL     1       2.641   2.691   0.149  0.00  0.00    +0.000 OA
ATOM      3  O   UNL     1       2.692   4.116   2.100  0.00  0.00    +0.000 OA
ENDROOT
TORSDOF 0
ENDMDL
MODEL 2
REMARK VINA RESULT:    -1.989      9.947     10.488
REMARK INTER + INTRA:          -1.989
REMARK INTER:                  -1.989
REMARK INTRA:                   0.000
REMARK UNBOUND:                 0.000
REMARK  Name = CT1001562328
REMARK  0 active torsions:
REMARK  status: ('A' for Active; 'I' for Inactive)
REMARK                            x       y       z     vdW  Elec       q    Type
REMARK                         _______ _______ _______ _____ _____    ______ ____
ROOT
ATOM      1  C   UNL     1      -2.628   7.120   9.377  0.00  0.00    +0.000 C 
ATOM      2  O   UNL     1      -2.627   6.172   8.627  0.00  0.00    +0.000 OA
ATOM      3  O   UNL     1      -2.629   8.068  10.125  0.00  0.00    +0.000 OA
ENDROOT
TORSDOF 0
ENDMDL
MODEL 3
REMARK VINA RESULT:    -1.986      9.949     10.669
REMARK INTER + INTRA:          -1.986
REMARK INTER:                  -1.986
REMARK INTRA:                   0.000
REMARK UNBOUND:                 0.000
REMARK  Name = CT1001562328
REMARK  0 active torsions:
REMARK  status: ('A' for Active; 'I' for Inactive)
REMARK                            x       y       z     vdW  Elec       q    Type
REMARK                         _______ _______ _______ _____ _____    ______ ____
ROOT
ATOM      1  C   UNL     1      -2.633   7.126   9.375  0.00  0.00    +0.000 C 
ATOM      2  O   UNL     1      -2.635   8.074  10.125  0.00  0.00    +0.000 OA
ATOM      3  O   UNL     1      -2.631   6.179   8.625  0.00  0.00    +0.000 OA
ENDROOT
TORSDOF 0
ENDMDL
MODEL 4
REMARK VINA RESULT:    -1.808      8.689      9.043
REMARK INTER + INTRA:          -1.808
REMARK INTER:                  -1.808
REMARK INTRA:                   0.000
REMARK UNBOUND:                 0.000
REMARK  Name = CT1001562328
REMARK  0 active torsions:
REMARK  status: ('A' for Active; 'I' for Inactive)
REMARK                            x       y       z     vdW  Elec       q    Type
REMARK                         _______ _______ _______ _____ _____    ______ ____
ROOT
ATOM      1  C   UNL     1       4.659   2.064   9.765  0.00  0.00    +0.000 C 
ATOM      2  O   UNL     1       5.007   0.959  10.109  0.00  0.00    +0.000 OA
ATOM      3  O   UNL     1       4.311   3.168   9.420  0.00  0.00    +0.000 OA
ENDROOT
TORSDOF 0
ENDMDL
MODEL 5
REMARK VINA RESULT:    -1.793      8.723      9.122
REMARK INTER + INTRA:          -1.793
REMARK INTER:                  -1.793
REMARK INTRA:                   0.000
REMARK UNBOUND:                 0.000
REMARK  Name = CT1001562328
REMARK  0 active torsions:
REMARK  status: ('A' for Active; 'I' for Inactive)
REMARK                            x       y       z     vdW  Elec       q    Type
REMARK                         _______ _______ _______ _____ _____    ______ ____
ROOT
ATOM      1  C   UNL     1       4.681   1.976   9.757  0.00  0.00    +0.000 C 
ATOM      2  O   UNL     1       4.240   3.065   9.477  0.00  0.00    +0.000 OA
ATOM      3  O   UNL     1       5.121   0.886  10.036  0.00  0.00    +0.000 OA
ENDROOT
TORSDOF 0
ENDMDL
