MODEL 1
REMARK VINA RESULT:    -1.896      0.000      0.000
REMARK INTER + INTRA:          -1.896
REMARK INTER:                  -1.896
REMARK INTRA:                   0.000
REMARK UNBOUND:                 0.000
REMARK  Name = CT1001562328
REMARK  0 active torsions:
REMARK  status: ('A' for Active; 'I' for Inactive)
REMARK                            x       y       z     vdW  Elec       q    Type
REMARK                         _______ _______ _______ _____ _____    ______ ____
ROOT
ATOM      1  C   UNL     1       6.024   1.142  -2.437  0.00  0.00    +0.000 C 
ATOM      2  O   UNL     1       6.297  -0.018  -2.634  0.00  0.00    +0.000 OA
ATOM      3  O   UNL     1       5.752   2.303  -2.241  0.00  0.00    +0.000 OA
ENDROOT
TORSDOF 0
ENDMDL
MODEL 2
REMARK VINA RESULT:    -1.895      0.071      1.973
REMARK INTER + INTRA:          -1.895
REMARK INTER:                  -1.895
REMARK INTRA:                   0.000
REMARK UNBOUND:                 0.000
REMARK  Name = CT1001562328
REMARK  0 active torsions:
REMARK  status: ('A' for Active; 'I' for Inactive)
REMARK                            x       y       z     vdW  Elec       q    Type
REMARK                         _______ _______ _______ _____ _____    ______ ____
ROOT
ATOM      1  C   UNL     1       5.993   1.157  -2.470  0.00  0.00    +0.000 C 
ATOM      2  O   UNL     1       5.784   2.329  -2.266  0.00  0.00    +0.000 OA
ATOM      3  O   UNL     1       6.203  -0.015  -2.674  0.00  0.00    +0.000 OA
ENDROOT
TORSDOF 0
ENDMDL
MODEL 3
REMARK VINA RESULT:    -1.858     14.105     14.287
REMARK INTER + INTRA:          -1.858
REMARK INTER:                  -1.858
REMARK INTRA:                   0.000
REMARK UNBOUND:                 0.000
REMARK  Name = CT1001562328
REMARK  0 active torsions:
REMARK  status: ('A' for Active; 'I' for Inactive)
REMARK                            x       y       z     vdW  Elec       q    Type
REMARK                         _______ _______ _______ _____ _____    ______ ____
ROOT
ATOM      1  C   UNL     1      -7.838   0.682  -5.298  0.00  0.00    +0.000 C 
ATOM      2  O   UNL     1      -8.524   1.441  -4.655  0.00  0.00    +0.000 OA
ATOM      3  O   UNL     1      -7.153  -0.077  -5.942  0.00  0.00    +0.000 OA
ENDROOT
TORSDOF 0
ENDMDL
MODEL 4
REMARK VINA RESULT:    -1.852     14.127     14.196
REMARK INTER + INTRA:          -1.852
REMARK INTER:                  -1.852
REMARK INTRA:                   0.000
REMARK UNBOUND:                 0.000
REMARK  Name = CT1001562328
REMARK  0 active torsions:
REMARK  status: ('A' for Active; 'I' for Inactive)
REMARK                            x       y       z     vdW  Elec       q    Type
REMARK                         _______ _______ _______ _____ _____    ______ ____
ROOT
ATOM      1  C   UNL     1      -7.853   0.671  -5.330  0.00  0.00    +0.000 C 
ATOM      2  O   UNL     1      -7.151  -0.089  -5.954  0.00  0.00    +0.000 OA
ATOM      3  O   UNL     1      -8.556   1.429  -4.705  0.00  0.00    +0.000 OA
ENDROOT
TORSDOF 0
ENDMDL
MODEL 5
REMARK VINA RESULT:    -1.789      1.092      1.787
REMARK INTER + INTRA:          -1.789
REMARK INTER:                  -1.789
REMARK INTRA:                   0.000
REMARK UNBOUND:                 0.000
REMARK  Name = CT1001562328
REMARK  0 active torsions:
REMARK  status: ('A' for Active; 'I' for Inactive)
REMARK                            x       y       z     vdW  Elec       q    Type
REMARK                         _______ _______ _______ _____ _____    ______ ____
ROOT
ATOM      1  C   UNL     1       6.406   1.298  -2.159  0.00  0.00    +0.000 C 
ATOM      2  O   UNL     1       5.380   1.775  -2.584  0.00  0.00    +0.000 OA
ATOM      3  O   UNL     1       7.430   0.819  -1.735  0.00  0.00    +0.000 OA
ENDROOT
TORSDOF 0
ENDMDL
