MODEL 1
REMARK VINA RESULT:    -2.215      0.000      0.000
REMARK INTER + INTRA:          -2.215
REMARK INTER:                  -2.215
REMARK INTRA:                   0.000
REMARK UNBOUND:                 0.000
REMARK  Name = CT1001562328
REMARK  0 active torsions:
REMARK  status: ('A' for Active; 'I' for Inactive)
REMARK                            x       y       z     vdW  Elec       q    Type
REMARK                         _______ _______ _______ _____ _____    ______ ____
ROOT
ATOM      1  C   UNL     1      -9.349   5.105  -3.682  0.00  0.00    +0.000 C 
ATOM      2  O   UNL     1      -9.923   6.039  -4.189  0.00  0.00    +0.000 OA
ATOM      3  O   UNL     1      -8.774   4.171  -3.174  0.00  0.00    +0.000 OA
ENDROOT
TORSDOF 0
ENDMDL
MODEL 2
REMARK VINA RESULT:    -2.212      0.063      1.974
REMARK INTER + INTRA:          -2.212
REMARK INTER:                  -2.212
REMARK INTRA:                   0.000
REMARK UNBOUND:                 0.000
REMARK  Name = CT1001562328
REMARK  0 active torsions:
REMARK  status: ('A' for Active; 'I' for Inactive)
REMARK                            x       y       z     vdW  Elec       q    Type
REMARK                         _______ _______ _______ _____ _____    ______ ____
ROOT
ATOM      1  C   UNL     1      -9.316   5.055  -3.666  0.00  0.00    +0.000 C 
ATOM      2  O   UNL     1      -8.729   4.128  -3.159  0.00  0.00    +0.000 OA
ATOM      3  O   UNL     1      -9.903   5.981  -4.173  0.00  0.00    +0.000 OA
ENDROOT
TORSDOF 0
ENDMDL
MODEL 3
REMARK VINA RESULT:    -2.003     22.580     22.882
REMARK INTER + INTRA:          -2.003
REMARK INTER:                  -2.003
REMARK INTRA:                   0.000
REMARK UNBOUND:                 0.000
REMARK  Name = CT1001562328
REMARK  0 active torsions:
REMARK  status: ('A' for Active; 'I' for Inactive)
REMARK                            x       y       z     vdW  Elec       q    Type
REMARK                         _______ _______ _______ _____ _____    ______ ____
ROOT
ATOM      1  C   UNL     1       9.573   8.097   8.708  0.00  0.00    +0.000 C 
ATOM      2  O   UNL     1       9.508   6.954   8.321  0.00  0.00    +0.000 OA
ATOM      3  O   UNL     1       9.638   9.239   9.097  0.00  0.00    +0.000 OA
ENDROOT
TORSDOF 0
ENDMDL
MODEL 4
REMARK VINA RESULT:    -1.800     19.174     19.823
REMARK INTER + INTRA:          -1.800
REMARK INTER:                  -1.800
REMARK INTRA:                   0.000
REMARK UNBOUND:                 0.000
REMARK  Name = CT1001562328
REMARK  0 active torsions:
REMARK  status: ('A' for Active; 'I' for Inactive)
REMARK                            x       y       z     vdW  Elec       q    Type
REMARK                         _______ _______ _______ _____ _____    ______ ____
ROOT
ATOM      1  C   UNL     1       5.903  -1.127   7.325  0.00  0.00    +0.000 C 
ATOM      2  O   UNL     1       5.359  -0.729   6.322  0.00  0.00    +0.000 OA
ATOM      3  O   UNL     1       6.447  -1.523   8.328  0.00  0.00    +0.000 OA
ENDROOT
TORSDOF 0
ENDMDL
MODEL 5
REMARK VINA RESULT:    -1.799     19.224     19.952
REMARK INTER + INTRA:          -1.799
REMARK INTER:                  -1.799
REMARK INTRA:                   0.000
REMARK UNBOUND:                 0.000
REMARK  Name = CT1001562328
REMARK  0 active torsions:
REMARK  status: ('A' for Active; 'I' for Inactive)
REMARK                            x       y       z     vdW  Elec       q    Type
REMARK                         _______ _______ _______ _____ _____    ______ ____
ROOT
ATOM      1  C   UNL     1       5.923  -1.138   7.380  0.00  0.00    +0.000 C 
ATOM      2  O   UNL     1       6.443  -1.531   8.398  0.00  0.00    +0.000 OA
ATOM      3  O   UNL     1       5.402  -0.745   6.364  0.00  0.00    +0.000 OA
ENDROOT
TORSDOF 0
ENDMDL
