MODEL 1
REMARK VINA RESULT:    -1.568      0.000      0.000
REMARK INTER + INTRA:          -1.568
REMARK INTER:                  -1.568
REMARK INTRA:                   0.000
REMARK UNBOUND:                 0.000
REMARK  Name = CT1001562328
REMARK  0 active torsions:
REMARK  status: ('A' for Active; 'I' for Inactive)
REMARK                            x       y       z     vdW  Elec       q    Type
REMARK                         _______ _______ _______ _____ _____    ______ ____
ROOT
ATOM      1  C   UNL     1       7.265   1.809  -6.731  0.00  0.00    +0.000 C 
ATOM      2  O   UNL     1       8.319   1.600  -6.178  0.00  0.00    +0.000 OA
ATOM      3  O   UNL     1       6.212   2.020  -7.284  0.00  0.00    +0.000 OA
ENDROOT
TORSDOF 0
ENDMDL
MODEL 2
REMARK VINA RESULT:    -1.567      0.011      1.973
REMARK INTER + INTRA:          -1.567
REMARK INTER:                  -1.567
REMARK INTRA:                   0.000
REMARK UNBOUND:                 0.000
REMARK  Name = CT1001562328
REMARK  0 active torsions:
REMARK  status: ('A' for Active; 'I' for Inactive)
REMARK                            x       y       z     vdW  Elec       q    Type
REMARK                         _______ _______ _______ _____ _____    ______ ____
ROOT
ATOM      1  C   UNL     1       7.268   1.807  -6.732  0.00  0.00    +0.000 C 
ATOM      2  O   UNL     1       6.213   2.003  -7.286  0.00  0.00    +0.000 OA
ATOM      3  O   UNL     1       8.323   1.608  -6.178  0.00  0.00    +0.000 OA
ENDROOT
TORSDOF 0
ENDMDL
MODEL 3
REMARK VINA RESULT:    -1.552     16.057     16.225
REMARK INTER + INTRA:          -1.552
REMARK INTER:                  -1.552
REMARK INTRA:                   0.000
REMARK UNBOUND:                 0.000
REMARK  Name = CT1001562328
REMARK  0 active torsions:
REMARK  status: ('A' for Active; 'I' for Inactive)
REMARK                            x       y       z     vdW  Elec       q    Type
REMARK                         _______ _______ _______ _____ _____    ______ ____
ROOT
ATOM      1  C   UNL     1       2.890  -2.642   8.204  0.00  0.00    +0.000 C 
ATOM      2  O   UNL     1       3.671  -3.185   7.458  0.00  0.00    +0.000 OA
ATOM      3  O   UNL     1       2.108  -2.100   8.949  0.00  0.00    +0.000 OA
ENDROOT
TORSDOF 0
ENDMDL
MODEL 4
REMARK VINA RESULT:    -1.550     13.894     14.179
REMARK INTER + INTRA:          -1.550
REMARK INTER:                  -1.550
REMARK INTRA:                   0.000
REMARK UNBOUND:                 0.000
REMARK  Name = CT1001562328
REMARK  0 active torsions:
REMARK  status: ('A' for Active; 'I' for Inactive)
REMARK                            x       y       z     vdW  Elec       q    Type
REMARK                         _______ _______ _______ _____ _____    ______ ____
ROOT
ATOM      1  C   UNL     1       4.742  -3.732   5.974  0.00  0.00    +0.000 C 
ATOM      2  O   UNL     1       4.975  -3.427   4.828  0.00  0.00    +0.000 OA
ATOM      3  O   UNL     1       4.508  -4.036   7.119  0.00  0.00    +0.000 OA
ENDROOT
TORSDOF 0
ENDMDL
MODEL 5
REMARK VINA RESULT:    -1.547      1.421      1.842
REMARK INTER + INTRA:          -1.547
REMARK INTER:                  -1.547
REMARK INTRA:                   0.000
REMARK UNBOUND:                 0.000
REMARK  Name = CT1001562328
REMARK  0 active torsions:
REMARK  status: ('A' for Active; 'I' for Inactive)
REMARK                            x       y       z     vdW  Elec       q    Type
REMARK                         _______ _______ _______ _____ _____    ______ ____
ROOT
ATOM      1  C   UNL     1       6.589   2.733  -6.773  0.00  0.00    +0.000 C 
ATOM      2  O   UNL     1       6.418   1.575  -7.070  0.00  0.00    +0.000 OA
ATOM      3  O   UNL     1       6.759   3.891  -6.474  0.00  0.00    +0.000 OA
ENDROOT
TORSDOF 0
ENDMDL
