MODEL 1
REMARK VINA RESULT:    -2.012      0.000      0.000
REMARK INTER + INTRA:          -2.012
REMARK INTER:                  -2.012
REMARK INTRA:                   0.000
REMARK UNBOUND:                 0.000
REMARK  Name = CT1001562328
REMARK  0 active torsions:
REMARK  status: ('A' for Active; 'I' for Inactive)
REMARK                            x       y       z     vdW  Elec       q    Type
REMARK                         _______ _______ _______ _____ _____    ______ ____
ROOT
ATOM      1  C   UNL     1       5.436   1.817  -1.110  0.00  0.00    +0.000 C 
ATOM      2  O   UNL     1       6.013   0.857  -1.563  0.00  0.00    +0.000 OA
ATOM      3  O   UNL     1       4.861   2.777  -0.656  0.00  0.00    +0.000 OA
ENDROOT
TORSDOF 0
ENDMDL
MODEL 2
REMARK VINA RESULT:    -2.010      0.009      1.973
REMARK INTER + INTRA:          -2.010
REMARK INTER:                  -2.010
REMARK INTRA:                   0.000
REMARK UNBOUND:                 0.000
REMARK  Name = CT1001562328
REMARK  0 active torsions:
REMARK  status: ('A' for Active; 'I' for Inactive)
REMARK                            x       y       z     vdW  Elec       q    Type
REMARK                         _______ _______ _______ _____ _____    ______ ____
ROOT
ATOM      1  C   UNL     1       5.435   1.825  -1.108  0.00  0.00    +0.000 C 
ATOM      2  O   UNL     1       4.854   2.784  -0.658  0.00  0.00    +0.000 OA
ATOM      3  O   UNL     1       6.014   0.865  -1.558  0.00  0.00    +0.000 OA
ENDROOT
TORSDOF 0
ENDMDL
MODEL 3
REMARK VINA RESULT:    -1.863     13.514     13.768
REMARK INTER + INTRA:          -1.863
REMARK INTER:                  -1.863
REMARK INTRA:                   0.000
REMARK UNBOUND:                 0.000
REMARK  Name = CT1001562328
REMARK  0 active torsions:
REMARK  status: ('A' for Active; 'I' for Inactive)
REMARK                            x       y       z     vdW  Elec       q    Type
REMARK                         _______ _______ _______ _____ _____    ______ ____
ROOT
ATOM      1  C   UNL     1      -6.815   1.417  -7.085  0.00  0.00    +0.000 C 
ATOM      2  O   UNL     1      -7.689   1.840  -6.366  0.00  0.00    +0.000 OA
ATOM      3  O   UNL     1      -5.940   0.994  -7.803  0.00  0.00    +0.000 OA
ENDROOT
TORSDOF 0
ENDMDL
MODEL 4
REMARK VINA RESULT:    -1.848     13.510     13.634
REMARK INTER + INTRA:          -1.848
REMARK INTER:                  -1.848
REMARK INTRA:                   0.000
REMARK UNBOUND:                 0.000
REMARK  Name = CT1001562328
REMARK  0 active torsions:
REMARK  status: ('A' for Active; 'I' for Inactive)
REMARK                            x       y       z     vdW  Elec       q    Type
REMARK                         _______ _______ _______ _____ _____    ______ ____
ROOT
ATOM      1  C   UNL     1      -6.772   1.329  -7.141  0.00  0.00    +0.000 C 
ATOM      2  O   UNL     1      -6.001   0.802  -7.907  0.00  0.00    +0.000 OA
ATOM      3  O   UNL     1      -7.543   1.857  -6.376  0.00  0.00    +0.000 OA
ENDROOT
TORSDOF 0
ENDMDL
MODEL 5
REMARK VINA RESULT:    -1.782      7.880      7.946
REMARK INTER + INTRA:          -1.782
REMARK INTER:                  -1.782
REMARK INTRA:                   0.000
REMARK UNBOUND:                 0.000
REMARK  Name = CT1001562328
REMARK  0 active torsions:
REMARK  status: ('A' for Active; 'I' for Inactive)
REMARK                            x       y       z     vdW  Elec       q    Type
REMARK                         _______ _______ _______ _____ _____    ______ ____
ROOT
ATOM      1  C   UNL     1      10.102  -4.219   0.998  0.00  0.00    +0.000 C 
ATOM      2  O   UNL     1      10.080  -4.897  -0.002  0.00  0.00    +0.000 OA
ATOM      3  O   UNL     1      10.125  -3.542   1.998  0.00  0.00    +0.000 OA
ENDROOT
TORSDOF 0
ENDMDL
