MODEL 1
REMARK VINA RESULT:    -2.067      0.000      0.000
REMARK INTER + INTRA:          -2.067
REMARK INTER:                  -2.067
REMARK INTRA:                   0.000
REMARK UNBOUND:                 0.000
REMARK  Name = CT1001562328
REMARK  0 active torsions:
REMARK  status: ('A' for Active; 'I' for Inactive)
REMARK                            x       y       z     vdW  Elec       q    Type
REMARK                         _______ _______ _______ _____ _____    ______ ____
ROOT
ATOM      1  C   UNL     1      -7.576   7.454  -1.259  0.00  0.00    +0.000 C 
ATOM      2  O   UNL     1      -8.235   8.431  -1.527  0.00  0.00    +0.000 OA
ATOM      3  O   UNL     1      -6.918   6.477  -0.993  0.00  0.00    +0.000 OA
ENDROOT
TORSDOF 0
ENDMDL
MODEL 2
REMARK VINA RESULT:    -2.055      0.134      1.975
REMARK INTER + INTRA:          -2.055
REMARK INTER:                  -2.055
REMARK INTRA:                   0.000
REMARK UNBOUND:                 0.000
REMARK  Name = CT1001562328
REMARK  0 active torsions:
REMARK  status: ('A' for Active; 'I' for Inactive)
REMARK                            x       y       z     vdW  Elec       q    Type
REMARK                         _______ _______ _______ _____ _____    ______ ____
ROOT
ATOM      1  C   UNL     1      -7.523   7.353  -1.261  0.00  0.00    +0.000 C 
ATOM      2  O   UNL     1      -6.868   6.355  -1.077  0.00  0.00    +0.000 OA
ATOM      3  O   UNL     1      -8.177   8.352  -1.445  0.00  0.00    +0.000 OA
ENDROOT
TORSDOF 0
ENDMDL
MODEL 3
REMARK VINA RESULT:    -1.810      2.043      2.884
REMARK INTER + INTRA:          -1.810
REMARK INTER:                  -1.810
REMARK INTRA:                   0.000
REMARK UNBOUND:                 0.000
REMARK  Name = CT1001562328
REMARK  0 active torsions:
REMARK  status: ('A' for Active; 'I' for Inactive)
REMARK                            x       y       z     vdW  Elec       q    Type
REMARK                         _______ _______ _______ _____ _____    ______ ____
ROOT
ATOM      1  C   UNL     1      -6.965   5.504  -0.214  0.00  0.00    +0.000 C 
ATOM      2  O   UNL     1      -7.236   4.717   0.662  0.00  0.00    +0.000 OA
ATOM      3  O   UNL     1      -6.692   6.291  -1.089  0.00  0.00    +0.000 OA
ENDROOT
TORSDOF 0
ENDMDL
MODEL 4
REMARK VINA RESULT:    -1.800      1.980      2.409
REMARK INTER + INTRA:          -1.800
REMARK INTER:                  -1.800
REMARK INTRA:                   0.000
REMARK UNBOUND:                 0.000
REMARK  Name = CT1001562328
REMARK  0 active torsions:
REMARK  status: ('A' for Active; 'I' for Inactive)
REMARK                            x       y       z     vdW  Elec       q    Type
REMARK                         _______ _______ _______ _____ _____    ______ ____
ROOT
ATOM      1  C   UNL     1      -6.946   5.562  -0.231  0.00  0.00    +0.000 C 
ATOM      2  O   UNL     1      -6.713   6.392  -1.078  0.00  0.00    +0.000 OA
ATOM      3  O   UNL     1      -7.181   4.732   0.615  0.00  0.00    +0.000 OA
ENDROOT
TORSDOF 0
ENDMDL
MODEL 5
REMARK VINA RESULT:    -1.721     18.335     19.024
REMARK INTER + INTRA:          -1.721
REMARK INTER:                  -1.721
REMARK INTRA:                   0.000
REMARK UNBOUND:                 0.000
REMARK  Name = CT1001562328
REMARK  0 active torsions:
REMARK  status: ('A' for Active; 'I' for Inactive)
REMARK                            x       y       z     vdW  Elec       q    Type
REMARK                         _______ _______ _______ _____ _____    ______ ____
ROOT
ATOM      1  C   UNL     1       8.349  -1.164   4.538  0.00  0.00    +0.000 C 
ATOM      2  O   UNL     1       7.583  -0.738   3.706  0.00  0.00    +0.000 OA
ATOM      3  O   UNL     1       9.113  -1.591   5.370  0.00  0.00    +0.000 OA
ENDROOT
TORSDOF 0
ENDMDL
