MODEL 1
REMARK VINA RESULT:    -2.010      0.000      0.000
REMARK INTER + INTRA:          -2.010
REMARK INTER:                  -2.010
REMARK INTRA:                   0.000
REMARK UNBOUND:                 0.000
REMARK  Name = CT1001562328
REMARK  0 active torsions:
REMARK  status: ('A' for Active; 'I' for Inactive)
REMARK                            x       y       z     vdW  Elec       q    Type
REMARK                         _______ _______ _______ _____ _____    ______ ____
ROOT
ATOM      1  C   UNL     1       5.431   1.811  -1.105  0.00  0.00    +0.000 C 
ATOM      2  O   UNL     1       6.005   0.851  -1.561  0.00  0.00    +0.000 OA
ATOM      3  O   UNL     1       4.858   2.772  -0.648  0.00  0.00    +0.000 OA
ENDROOT
TORSDOF 0
ENDMDL
MODEL 2
REMARK VINA RESULT:    -2.008      0.057      1.973
REMARK INTER + INTRA:          -2.008
REMARK INTER:                  -2.008
REMARK INTRA:                   0.000
REMARK UNBOUND:                 0.000
REMARK  Name = CT1001562328
REMARK  0 active torsions:
REMARK  status: ('A' for Active; 'I' for Inactive)
REMARK                            x       y       z     vdW  Elec       q    Type
REMARK                         _______ _______ _______ _____ _____    ______ ____
ROOT
ATOM      1  C   UNL     1       5.412   1.805  -1.132  0.00  0.00    +0.000 C 
ATOM      2  O   UNL     1       4.803   2.762  -0.718  0.00  0.00    +0.000 OA
ATOM      3  O   UNL     1       6.023   0.848  -1.547  0.00  0.00    +0.000 OA
ENDROOT
TORSDOF 0
ENDMDL
MODEL 3
REMARK VINA RESULT:    -1.869     13.507     13.640
REMARK INTER + INTRA:          -1.869
REMARK INTER:                  -1.869
REMARK INTRA:                   0.000
REMARK UNBOUND:                 0.000
REMARK  Name = CT1001562328
REMARK  0 active torsions:
REMARK  status: ('A' for Active; 'I' for Inactive)
REMARK                            x       y       z     vdW  Elec       q    Type
REMARK                         _______ _______ _______ _____ _____    ______ ____
ROOT
ATOM      1  C   UNL     1      -6.813   1.424  -7.076  0.00  0.00    +0.000 C 
ATOM      2  O   UNL     1      -5.932   1.024  -7.800  0.00  0.00    +0.000 OA
ATOM      3  O   UNL     1      -7.694   1.822  -6.351  0.00  0.00    +0.000 OA
ENDROOT
TORSDOF 0
ENDMDL
MODEL 4
REMARK VINA RESULT:    -1.798      7.835      8.117
REMARK INTER + INTRA:          -1.798
REMARK INTER:                  -1.798
REMARK INTRA:                   0.000
REMARK UNBOUND:                 0.000
REMARK  Name = CT1001562328
REMARK  0 active torsions:
REMARK  status: ('A' for Active; 'I' for Inactive)
REMARK                            x       y       z     vdW  Elec       q    Type
REMARK                         _______ _______ _______ _____ _____    ______ ____
ROOT
ATOM      1  C   UNL     1      10.123  -4.174   1.037  0.00  0.00    +0.000 C 
ATOM      2  O   UNL     1      10.125  -3.452   2.006  0.00  0.00    +0.000 OA
ATOM      3  O   UNL     1      10.121  -4.898   0.070  0.00  0.00    +0.000 OA
ENDROOT
TORSDOF 0
ENDMDL
MODEL 5
REMARK VINA RESULT:    -1.730      8.205      8.608
REMARK INTER + INTRA:          -1.730
REMARK INTER:                  -1.730
REMARK INTRA:                   0.000
REMARK UNBOUND:                 0.000
REMARK  Name = CT1001562328
REMARK  0 active torsions:
REMARK  status: ('A' for Active; 'I' for Inactive)
REMARK                            x       y       z     vdW  Elec       q    Type
REMARK                         _______ _______ _______ _____ _____    ______ ____
ROOT
ATOM      1  C   UNL     1       7.889   9.566  -3.392  0.00  0.00    +0.000 C 
ATOM      2  O   UNL     1       7.199  10.125  -4.212  0.00  0.00    +0.000 OA
ATOM      3  O   UNL     1       8.577   9.008  -2.572  0.00  0.00    +0.000 OA
ENDROOT
TORSDOF 0
ENDMDL
