MODEL 1
REMARK VINA RESULT:    -1.792      0.000      0.000
REMARK INTER + INTRA:          -1.792
REMARK INTER:                  -1.792
REMARK INTRA:                   0.000
REMARK UNBOUND:                 0.000
REMARK  Name = CT1001562328
REMARK  0 active torsions:
REMARK  status: ('A' for Active; 'I' for Inactive)
REMARK                            x       y       z     vdW  Elec       q    Type
REMARK                         _______ _______ _______ _____ _____    ______ ____
ROOT
ATOM      1  C   UNL     1      -7.075  -0.001  -7.802  0.00  0.00    +0.000 C 
ATOM      2  O   UNL     1      -6.092  -0.656  -8.053  0.00  0.00    +0.000 OA
ATOM      3  O   UNL     1      -8.060   0.653  -7.551  0.00  0.00    +0.000 OA
ENDROOT
TORSDOF 0
ENDMDL
MODEL 2
REMARK VINA RESULT:    -1.791      0.060      1.973
REMARK INTER + INTRA:          -1.791
REMARK INTER:                  -1.791
REMARK INTRA:                   0.000
REMARK UNBOUND:                 0.000
REMARK  Name = CT1001562328
REMARK  0 active torsions:
REMARK  status: ('A' for Active; 'I' for Inactive)
REMARK                            x       y       z     vdW  Elec       q    Type
REMARK                         _______ _______ _______ _____ _____    ______ ____
ROOT
ATOM      1  C   UNL     1      -7.043   0.002  -7.808  0.00  0.00    +0.000 C 
ATOM      2  O   UNL     1      -7.991   0.703  -7.547  0.00  0.00    +0.000 OA
ATOM      3  O   UNL     1      -6.094  -0.701  -8.068  0.00  0.00    +0.000 OA
ENDROOT
TORSDOF 0
ENDMDL
MODEL 3
REMARK VINA RESULT:    -1.744     17.233     17.429
REMARK INTER + INTRA:          -1.744
REMARK INTER:                  -1.744
REMARK INTRA:                   0.000
REMARK UNBOUND:                 0.000
REMARK  Name = CT1001562328
REMARK  0 active torsions:
REMARK  status: ('A' for Active; 'I' for Inactive)
REMARK                            x       y       z     vdW  Elec       q    Type
REMARK                         _______ _______ _______ _____ _____    ______ ____
ROOT
ATOM      1  C   UNL     1       7.621   8.834  -4.906  0.00  0.00    +0.000 C 
ATOM      2  O   UNL     1       8.069   8.387  -3.877  0.00  0.00    +0.000 OA
ATOM      3  O   UNL     1       7.175   9.283  -5.935  0.00  0.00    +0.000 OA
ENDROOT
TORSDOF 0
ENDMDL
MODEL 4
REMARK VINA RESULT:    -1.744     17.248     17.465
REMARK INTER + INTRA:          -1.744
REMARK INTER:                  -1.744
REMARK INTRA:                   0.000
REMARK UNBOUND:                 0.000
REMARK  Name = CT1001562328
REMARK  0 active torsions:
REMARK  status: ('A' for Active; 'I' for Inactive)
REMARK                            x       y       z     vdW  Elec       q    Type
REMARK                         _______ _______ _______ _____ _____    ______ ____
ROOT
ATOM      1  C   UNL     1       7.624   8.824  -4.889  0.00  0.00    +0.000 C 
ATOM      2  O   UNL     1       7.199   9.286  -5.921  0.00  0.00    +0.000 OA
ATOM      3  O   UNL     1       8.048   8.364  -3.855  0.00  0.00    +0.000 OA
ENDROOT
TORSDOF 0
ENDMDL
MODEL 5
REMARK VINA RESULT:    -1.668     18.252     18.605
REMARK INTER + INTRA:          -1.668
REMARK INTER:                  -1.668
REMARK INTRA:                   0.000
REMARK UNBOUND:                 0.000
REMARK  Name = CT1001562328
REMARK  0 active torsions:
REMARK  status: ('A' for Active; 'I' for Inactive)
REMARK                            x       y       z     vdW  Elec       q    Type
REMARK                         _______ _______ _______ _____ _____    ______ ____
ROOT
ATOM      1  C   UNL     1       8.842   7.954  -2.633  0.00  0.00    +0.000 C 
ATOM      2  O   UNL     1       8.204   8.301  -3.598  0.00  0.00    +0.000 OA
ATOM      3  O   UNL     1       9.481   7.608  -1.668  0.00  0.00    +0.000 OA
ENDROOT
TORSDOF 0
ENDMDL
