MODEL 1
REMARK VINA RESULT:    -1.569      0.000      0.000
REMARK INTER + INTRA:          -1.569
REMARK INTER:                  -1.569
REMARK INTRA:                   0.000
REMARK UNBOUND:                 0.000
REMARK  Name = CT1001562328
REMARK  0 active torsions:
REMARK  status: ('A' for Active; 'I' for Inactive)
REMARK                            x       y       z     vdW  Elec       q    Type
REMARK                         _______ _______ _______ _____ _____    ______ ____
ROOT
ATOM      1  C   UNL     1       7.269   1.838  -6.765  0.00  0.00    +0.000 C 
ATOM      2  O   UNL     1       8.317   1.640  -6.197  0.00  0.00    +0.000 OA
ATOM      3  O   UNL     1       6.221   2.035  -7.333  0.00  0.00    +0.000 OA
ENDROOT
TORSDOF 0
ENDMDL
MODEL 2
REMARK VINA RESULT:    -1.568      0.060      1.973
REMARK INTER + INTRA:          -1.568
REMARK INTER:                  -1.568
REMARK INTRA:                   0.000
REMARK UNBOUND:                 0.000
REMARK  Name = CT1001562328
REMARK  0 active torsions:
REMARK  status: ('A' for Active; 'I' for Inactive)
REMARK                            x       y       z     vdW  Elec       q    Type
REMARK                         _______ _______ _______ _____ _____    ______ ____
ROOT
ATOM      1  C   UNL     1       7.288   1.808  -6.732  0.00  0.00    +0.000 C 
ATOM      2  O   UNL     1       6.222   2.012  -7.262  0.00  0.00    +0.000 OA
ATOM      3  O   UNL     1       8.355   1.604  -6.204  0.00  0.00    +0.000 OA
ENDROOT
TORSDOF 0
ENDMDL
MODEL 3
REMARK VINA RESULT:    -1.550     13.930     14.222
REMARK INTER + INTRA:          -1.550
REMARK INTER:                  -1.550
REMARK INTRA:                   0.000
REMARK UNBOUND:                 0.000
REMARK  Name = CT1001562328
REMARK  0 active torsions:
REMARK  status: ('A' for Active; 'I' for Inactive)
REMARK                            x       y       z     vdW  Elec       q    Type
REMARK                         _______ _______ _______ _____ _____    ______ ____
ROOT
ATOM      1  C   UNL     1       4.743  -3.728   5.976  0.00  0.00    +0.000 C 
ATOM      2  O   UNL     1       4.960  -3.402   4.833  0.00  0.00    +0.000 OA
ATOM      3  O   UNL     1       4.526  -4.056   7.118  0.00  0.00    +0.000 OA
ENDROOT
TORSDOF 0
ENDMDL
MODEL 4
REMARK VINA RESULT:    -1.548      1.422      1.850
REMARK INTER + INTRA:          -1.548
REMARK INTER:                  -1.548
REMARK INTRA:                   0.000
REMARK UNBOUND:                 0.000
REMARK  Name = CT1001562328
REMARK  0 active torsions:
REMARK  status: ('A' for Active; 'I' for Inactive)
REMARK                            x       y       z     vdW  Elec       q    Type
REMARK                         _______ _______ _______ _____ _____    ______ ____
ROOT
ATOM      1  C   UNL     1       6.604   2.756  -6.822  0.00  0.00    +0.000 C 
ATOM      2  O   UNL     1       6.389   1.595  -7.076  0.00  0.00    +0.000 OA
ATOM      3  O   UNL     1       6.821   3.917  -6.567  0.00  0.00    +0.000 OA
ENDROOT
TORSDOF 0
ENDMDL
MODEL 5
REMARK VINA RESULT:    -1.545     15.334     15.499
REMARK INTER + INTRA:          -1.545
REMARK INTER:                  -1.545
REMARK INTRA:                   0.000
REMARK UNBOUND:                 0.000
REMARK  Name = CT1001562328
REMARK  0 active torsions:
REMARK  status: ('A' for Active; 'I' for Inactive)
REMARK                            x       y       z     vdW  Elec       q    Type
REMARK                         _______ _______ _______ _____ _____    ______ ____
ROOT
ATOM      1  C   UNL     1       2.973  -1.859   7.620  0.00  0.00    +0.000 C 
ATOM      2  O   UNL     1       3.889  -1.198   7.192  0.00  0.00    +0.000 OA
ATOM      3  O   UNL     1       2.055  -2.520   8.047  0.00  0.00    +0.000 OA
ENDROOT
TORSDOF 0
ENDMDL
