MODEL 1
REMARK VINA RESULT:    -1.614      0.000      0.000
REMARK INTER + INTRA:          -1.614
REMARK INTER:                  -1.614
REMARK INTRA:                   0.000
REMARK UNBOUND:                 0.000
REMARK  Name = CT1001562328
REMARK  0 active torsions:
REMARK  status: ('A' for Active; 'I' for Inactive)
REMARK                            x       y       z     vdW  Elec       q    Type
REMARK                         _______ _______ _______ _____ _____    ______ ____
ROOT
ATOM      1  C   UNL     1       3.785   9.961   5.031  0.00  0.00    +0.000 C 
ATOM      2  O   UNL     1       4.969  10.125   5.206  0.00  0.00    +0.000 OA
ATOM      3  O   UNL     1       2.601   9.798   4.857  0.00  0.00    +0.000 OA
ENDROOT
TORSDOF 0
ENDMDL
MODEL 2
REMARK VINA RESULT:    -1.567     14.728     14.728
REMARK INTER + INTRA:          -1.567
REMARK INTER:                  -1.567
REMARK INTRA:                   0.000
REMARK UNBOUND:                 0.000
REMARK  Name = CT1001562328
REMARK  0 active torsions:
REMARK  status: ('A' for Active; 'I' for Inactive)
REMARK                            x       y       z     vdW  Elec       q    Type
REMARK                         _______ _______ _______ _____ _____    ______ ____
ROOT
ATOM      1  C   UNL     1       7.268   1.824  -6.731  0.00  0.00    +0.000 C 
ATOM      2  O   UNL     1       8.319   1.640  -6.164  0.00  0.00    +0.000 OA
ATOM      3  O   UNL     1       6.217   2.007  -7.298  0.00  0.00    +0.000 OA
ENDROOT
TORSDOF 0
ENDMDL
MODEL 3
REMARK VINA RESULT:    -1.566     14.714     14.830
REMARK INTER + INTRA:          -1.566
REMARK INTER:                  -1.566
REMARK INTRA:                   0.000
REMARK UNBOUND:                 0.000
REMARK  Name = CT1001562328
REMARK  0 active torsions:
REMARK  status: ('A' for Active; 'I' for Inactive)
REMARK                            x       y       z     vdW  Elec       q    Type
REMARK                         _______ _______ _______ _____ _____    ______ ____
ROOT
ATOM      1  C   UNL     1       7.274   1.841  -6.721  0.00  0.00    +0.000 C 
ATOM      2  O   UNL     1       6.244   2.057  -7.314  0.00  0.00    +0.000 OA
ATOM      3  O   UNL     1       8.305   1.624  -6.129  0.00  0.00    +0.000 OA
ENDROOT
TORSDOF 0
ENDMDL
MODEL 4
REMARK VINA RESULT:    -1.552     12.985     13.152
REMARK INTER + INTRA:          -1.552
REMARK INTER:                  -1.552
REMARK INTRA:                   0.000
REMARK UNBOUND:                 0.000
REMARK  Name = CT1001562328
REMARK  0 active torsions:
REMARK  status: ('A' for Active; 'I' for Inactive)
REMARK                            x       y       z     vdW  Elec       q    Type
REMARK                         _______ _______ _______ _____ _____    ______ ____
ROOT
ATOM      1  C   UNL     1       2.903  -2.656   8.209  0.00  0.00    +0.000 C 
ATOM      2  O   UNL     1       2.119  -2.107   8.946  0.00  0.00    +0.000 OA
ATOM      3  O   UNL     1       3.689  -3.205   7.473  0.00  0.00    +0.000 OA
ENDROOT
TORSDOF 0
ENDMDL
MODEL 5
REMARK VINA RESULT:    -1.550     13.755     13.796
REMARK INTER + INTRA:          -1.550
REMARK INTER:                  -1.550
REMARK INTRA:                   0.000
REMARK UNBOUND:                 0.000
REMARK  Name = CT1001562328
REMARK  0 active torsions:
REMARK  status: ('A' for Active; 'I' for Inactive)
REMARK                            x       y       z     vdW  Elec       q    Type
REMARK                         _______ _______ _______ _____ _____    ______ ____
ROOT
ATOM      1  C   UNL     1       4.747  -3.701   5.986  0.00  0.00    +0.000 C 
ATOM      2  O   UNL     1       4.950  -3.451   4.822  0.00  0.00    +0.000 OA
ATOM      3  O   UNL     1       4.544  -3.951   7.151  0.00  0.00    +0.000 OA
ENDROOT
TORSDOF 0
ENDMDL
