MODEL 1
REMARK VINA RESULT:    -2.028      0.000      0.000
REMARK INTER + INTRA:          -2.028
REMARK INTER:                  -2.028
REMARK INTRA:                   0.000
REMARK UNBOUND:                 0.000
REMARK  Name = CT1001562328
REMARK  0 active torsions:
REMARK  status: ('A' for Active; 'I' for Inactive)
REMARK                            x       y       z     vdW  Elec       q    Type
REMARK                         _______ _______ _______ _____ _____    ______ ____
ROOT
ATOM      1  C   UNL     1       2.668   3.403   1.125  0.00  0.00    +0.000 C 
ATOM      2  O   UNL     1       2.648   2.682   0.156  0.00  0.00    +0.000 OA
ATOM      3  O   UNL     1       2.691   4.124   2.094  0.00  0.00    +0.000 OA
ENDROOT
TORSDOF 0
ENDMDL
MODEL 2
REMARK VINA RESULT:    -2.005      9.941     10.671
REMARK INTER + INTRA:          -2.005
REMARK INTER:                  -2.005
REMARK INTRA:                   0.000
REMARK UNBOUND:                 0.000
REMARK  Name = CT1001562328
REMARK  0 active torsions:
REMARK  status: ('A' for Active; 'I' for Inactive)
REMARK                            x       y       z     vdW  Elec       q    Type
REMARK                         _______ _______ _______ _____ _____    ______ ____
ROOT
ATOM      1  C   UNL     1      -2.671   7.071   9.377  0.00  0.00    +0.000 C 
ATOM      2  O   UNL     1      -2.715   8.019  10.125  0.00  0.00    +0.000 OA
ATOM      3  O   UNL     1      -2.625   6.123   8.630  0.00  0.00    +0.000 OA
ENDROOT
TORSDOF 0
ENDMDL
MODEL 3
REMARK VINA RESULT:    -2.000     10.063     10.579
REMARK INTER + INTRA:          -2.000
REMARK INTER:                  -2.000
REMARK INTRA:                   0.000
REMARK UNBOUND:                 0.000
REMARK  Name = CT1001562328
REMARK  0 active torsions:
REMARK  status: ('A' for Active; 'I' for Inactive)
REMARK                            x       y       z     vdW  Elec       q    Type
REMARK                         _______ _______ _______ _____ _____    ______ ____
ROOT
ATOM      1  C   UNL     1      -2.766   7.100   9.409  0.00  0.00    +0.000 C 
ATOM      2  O   UNL     1      -2.793   6.128   8.692  0.00  0.00    +0.000 OA
ATOM      3  O   UNL     1      -2.739   8.073  10.125  0.00  0.00    +0.000 OA
ENDROOT
TORSDOF 0
ENDMDL
MODEL 4
REMARK VINA RESULT:    -1.810      8.669      9.089
REMARK INTER + INTRA:          -1.810
REMARK INTER:                  -1.810
REMARK INTRA:                   0.000
REMARK UNBOUND:                 0.000
REMARK  Name = CT1001562328
REMARK  0 active torsions:
REMARK  status: ('A' for Active; 'I' for Inactive)
REMARK                            x       y       z     vdW  Elec       q    Type
REMARK                         _______ _______ _______ _____ _____    ______ ____
ROOT
ATOM      1  C   UNL     1       4.662   2.069   9.745  0.00  0.00    +0.000 C 
ATOM      2  O   UNL     1       4.303   3.171   9.402  0.00  0.00    +0.000 OA
ATOM      3  O   UNL     1       5.021   0.968  10.087  0.00  0.00    +0.000 OA
ENDROOT
TORSDOF 0
ENDMDL
MODEL 5
REMARK VINA RESULT:    -1.784      8.694      8.967
REMARK INTER + INTRA:          -1.784
REMARK INTER:                  -1.784
REMARK INTRA:                   0.000
REMARK UNBOUND:                 0.000
REMARK  Name = CT1001562328
REMARK  0 active torsions:
REMARK  status: ('A' for Active; 'I' for Inactive)
REMARK                            x       y       z     vdW  Elec       q    Type
REMARK                         _______ _______ _______ _____ _____    ______ ____
ROOT
ATOM      1  C   UNL     1       4.497   2.216   9.743  0.00  0.00    +0.000 C 
ATOM      2  O   UNL     1       4.200   1.109  10.125  0.00  0.00    +0.000 OA
ATOM      3  O   UNL     1       4.796   3.324   9.363  0.00  0.00    +0.000 OA
ENDROOT
TORSDOF 0
ENDMDL
