MODEL 1
REMARK VINA RESULT:    -1.693      0.000      0.000
REMARK INTER + INTRA:          -1.693
REMARK INTER:                  -1.693
REMARK INTRA:                   0.000
REMARK UNBOUND:                 0.000
REMARK  Name = CT1001562328
REMARK  0 active torsions:
REMARK  status: ('A' for Active; 'I' for Inactive)
REMARK                            x       y       z     vdW  Elec       q    Type
REMARK                         _______ _______ _______ _____ _____    ______ ____
ROOT
ATOM      1  C   UNL     1      -4.289   9.912   2.594  0.00  0.00    +0.000 C 
ATOM      2  O   UNL     1      -3.167   9.856   3.039  0.00  0.00    +0.000 OA
ATOM      3  O   UNL     1      -5.411   9.967   2.150  0.00  0.00    +0.000 OA
ENDROOT
TORSDOF 0
ENDMDL
MODEL 2
REMARK VINA RESULT:    -1.625     16.808     17.076
REMARK INTER + INTRA:          -1.625
REMARK INTER:                  -1.625
REMARK INTRA:                   0.000
REMARK UNBOUND:                 0.000
REMARK  Name = CT1001562328
REMARK  0 active torsions:
REMARK  status: ('A' for Active; 'I' for Inactive)
REMARK                            x       y       z     vdW  Elec       q    Type
REMARK                         _______ _______ _______ _____ _____    ______ ____
ROOT
ATOM      1  C   UNL     1       6.179  -0.054  -6.499  0.00  0.00    +0.000 C 
ATOM      2  O   UNL     1       7.281  -0.188  -6.024  0.00  0.00    +0.000 OA
ATOM      3  O   UNL     1       5.076   0.081  -6.973  0.00  0.00    +0.000 OA
ENDROOT
TORSDOF 0
ENDMDL
MODEL 3
REMARK VINA RESULT:    -1.609     17.177     17.497
REMARK INTER + INTRA:          -1.609
REMARK INTER:                  -1.609
REMARK INTRA:                   0.000
REMARK UNBOUND:                 0.000
REMARK  Name = CT1001562328
REMARK  0 active torsions:
REMARK  status: ('A' for Active; 'I' for Inactive)
REMARK                            x       y       z     vdW  Elec       q    Type
REMARK                         _______ _______ _______ _____ _____    ______ ____
ROOT
ATOM      1  C   UNL     1       6.212  -0.375  -6.697  0.00  0.00    +0.000 C 
ATOM      2  O   UNL     1       5.298  -0.000  -7.392  0.00  0.00    +0.000 OA
ATOM      3  O   UNL     1       7.125  -0.749  -6.000  0.00  0.00    +0.000 OA
ENDROOT
TORSDOF 0
ENDMDL
MODEL 4
REMARK VINA RESULT:    -1.608     16.452     16.510
REMARK INTER + INTRA:          -1.608
REMARK INTER:                  -1.608
REMARK INTRA:                   0.000
REMARK UNBOUND:                 0.000
REMARK  Name = CT1001562328
REMARK  0 active torsions:
REMARK  status: ('A' for Active; 'I' for Inactive)
REMARK                            x       y       z     vdW  Elec       q    Type
REMARK                         _______ _______ _______ _____ _____    ______ ____
ROOT
ATOM      1  C   UNL     1       8.954   0.513  -0.204  0.00  0.00    +0.000 C 
ATOM      2  O   UNL     1       9.559   1.549  -0.064  0.00  0.00    +0.000 OA
ATOM      3  O   UNL     1       8.349  -0.524  -0.343  0.00  0.00    +0.000 OA
ENDROOT
TORSDOF 0
ENDMDL
MODEL 5
REMARK VINA RESULT:    -1.595     16.379     16.537
REMARK INTER + INTRA:          -1.595
REMARK INTER:                  -1.595
REMARK INTRA:                   0.000
REMARK UNBOUND:                 0.000
REMARK  Name = CT1001562328
REMARK  0 active torsions:
REMARK  status: ('A' for Active; 'I' for Inactive)
REMARK                            x       y       z     vdW  Elec       q    Type
REMARK                         _______ _______ _______ _____ _____    ______ ____
ROOT
ATOM      1  C   UNL     1       8.899   0.462  -0.140  0.00  0.00    +0.000 C 
ATOM      2  O   UNL     1       8.348  -0.599  -0.319  0.00  0.00    +0.000 OA
ATOM      3  O   UNL     1       9.448   1.522   0.040  0.00  0.00    +0.000 OA
ENDROOT
TORSDOF 0
ENDMDL
