MODEL 1
REMARK VINA RESULT:    -1.792      0.000      0.000
REMARK INTER + INTRA:          -1.792
REMARK INTER:                  -1.792
REMARK INTRA:                   0.000
REMARK UNBOUND:                 0.000
REMARK  Name = CT1001562328
REMARK  0 active torsions:
REMARK  status: ('A' for Active; 'I' for Inactive)
REMARK                            x       y       z     vdW  Elec       q    Type
REMARK                         _______ _______ _______ _____ _____    ______ ____
ROOT
ATOM      1  C   UNL     1      -7.076   0.000  -7.801  0.00  0.00    +0.000 C 
ATOM      2  O   UNL     1      -6.091  -0.653  -8.052  0.00  0.00    +0.000 OA
ATOM      3  O   UNL     1      -8.061   0.652  -7.550  0.00  0.00    +0.000 OA
ENDROOT
TORSDOF 0
ENDMDL
MODEL 2
REMARK VINA RESULT:    -1.792      0.002      1.973
REMARK INTER + INTRA:          -1.792
REMARK INTER:                  -1.792
REMARK INTRA:                   0.000
REMARK UNBOUND:                 0.000
REMARK  Name = CT1001562328
REMARK  0 active torsions:
REMARK  status: ('A' for Active; 'I' for Inactive)
REMARK                            x       y       z     vdW  Elec       q    Type
REMARK                         _______ _______ _______ _____ _____    ______ ____
ROOT
ATOM      1  C   UNL     1      -7.076  -0.001  -7.803  0.00  0.00    +0.000 C 
ATOM      2  O   UNL     1      -8.060   0.653  -7.551  0.00  0.00    +0.000 OA
ATOM      3  O   UNL     1      -6.092  -0.655  -8.053  0.00  0.00    +0.000 OA
ENDROOT
TORSDOF 0
ENDMDL
MODEL 3
REMARK VINA RESULT:    -1.742     17.211     17.461
REMARK INTER + INTRA:          -1.742
REMARK INTER:                  -1.742
REMARK INTRA:                   0.000
REMARK UNBOUND:                 0.000
REMARK  Name = CT1001562328
REMARK  0 active torsions:
REMARK  status: ('A' for Active; 'I' for Inactive)
REMARK                            x       y       z     vdW  Elec       q    Type
REMARK                         _______ _______ _______ _____ _____    ______ ____
ROOT
ATOM      1  C   UNL     1       7.619   8.832  -4.908  0.00  0.00    +0.000 C 
ATOM      2  O   UNL     1       7.150   9.265  -5.934  0.00  0.00    +0.000 OA
ATOM      3  O   UNL     1       8.087   8.397  -3.883  0.00  0.00    +0.000 OA
ENDROOT
TORSDOF 0
ENDMDL
MODEL 4
REMARK VINA RESULT:    -1.736      1.352      2.048
REMARK INTER + INTRA:          -1.736
REMARK INTER:                  -1.736
REMARK INTRA:                   0.000
REMARK UNBOUND:                 0.000
REMARK  Name = CT1001562328
REMARK  0 active torsions:
REMARK  status: ('A' for Active; 'I' for Inactive)
REMARK                            x       y       z     vdW  Elec       q    Type
REMARK                         _______ _______ _______ _____ _____    ______ ____
ROOT
ATOM      1  C   UNL     1      -7.970   0.572  -7.804  0.00  0.00    +0.000 C 
ATOM      2  O   UNL     1      -8.894   0.757  -8.560  0.00  0.00    +0.000 OA
ATOM      3  O   UNL     1      -7.045   0.388  -7.048  0.00  0.00    +0.000 OA
ENDROOT
TORSDOF 0
ENDMDL
MODEL 5
REMARK VINA RESULT:    -1.732     17.141     17.429
REMARK INTER + INTRA:          -1.732
REMARK INTER:                  -1.732
REMARK INTRA:                   0.000
REMARK UNBOUND:                 0.000
REMARK  Name = CT1001562328
REMARK  0 active torsions:
REMARK  status: ('A' for Active; 'I' for Inactive)
REMARK                            x       y       z     vdW  Elec       q    Type
REMARK                         _______ _______ _______ _____ _____    ______ ____
ROOT
ATOM      1  C   UNL     1       7.639   8.800  -4.868  0.00  0.00    +0.000 C 
ATOM      2  O   UNL     1       8.211   8.426  -3.872  0.00  0.00    +0.000 OA
ATOM      3  O   UNL     1       7.065   9.174  -5.863  0.00  0.00    +0.000 OA
ENDROOT
TORSDOF 0
ENDMDL
