MODEL 1
REMARK VINA RESULT:    -1.792      0.000      0.000
REMARK INTER + INTRA:          -1.792
REMARK INTER:                  -1.792
REMARK INTRA:                   0.000
REMARK UNBOUND:                 0.000
REMARK  Name = CT1001562328
REMARK  0 active torsions:
REMARK  status: ('A' for Active; 'I' for Inactive)
REMARK                            x       y       z     vdW  Elec       q    Type
REMARK                         _______ _______ _______ _____ _____    ______ ____
ROOT
ATOM      1  C   UNL     1      -7.045  -0.001  -7.802  0.00  0.00    +0.000 C 
ATOM      2  O   UNL     1      -7.993   0.697  -7.534  0.00  0.00    +0.000 OA
ATOM      3  O   UNL     1      -6.097  -0.701  -8.069  0.00  0.00    +0.000 OA
ENDROOT
TORSDOF 0
ENDMDL
MODEL 2
REMARK VINA RESULT:    -1.792      0.057      1.973
REMARK INTER + INTRA:          -1.792
REMARK INTER:                  -1.792
REMARK INTRA:                   0.000
REMARK UNBOUND:                 0.000
REMARK  Name = CT1001562328
REMARK  0 active torsions:
REMARK  status: ('A' for Active; 'I' for Inactive)
REMARK                            x       y       z     vdW  Elec       q    Type
REMARK                         _______ _______ _______ _____ _____    ______ ____
ROOT
ATOM      1  C   UNL     1      -7.076  -0.001  -7.802  0.00  0.00    +0.000 C 
ATOM      2  O   UNL     1      -6.092  -0.657  -8.054  0.00  0.00    +0.000 OA
ATOM      3  O   UNL     1      -8.059   0.654  -7.552  0.00  0.00    +0.000 OA
ENDROOT
TORSDOF 0
ENDMDL
MODEL 3
REMARK VINA RESULT:    -1.743      1.398      2.038
REMARK INTER + INTRA:          -1.743
REMARK INTER:                  -1.743
REMARK INTRA:                   0.000
REMARK UNBOUND:                 0.000
REMARK  Name = CT1001562328
REMARK  0 active torsions:
REMARK  status: ('A' for Active; 'I' for Inactive)
REMARK                            x       y       z     vdW  Elec       q    Type
REMARK                         _______ _______ _______ _____ _____    ______ ____
ROOT
ATOM      1  C   UNL     1      -7.955   0.579  -7.730  0.00  0.00    +0.000 C 
ATOM      2  O   UNL     1      -7.045   0.409  -6.955  0.00  0.00    +0.000 OA
ATOM      3  O   UNL     1      -8.867   0.749  -8.504  0.00  0.00    +0.000 OA
ENDROOT
TORSDOF 0
ENDMDL
MODEL 4
REMARK VINA RESULT:    -1.741     17.233     17.471
REMARK INTER + INTRA:          -1.741
REMARK INTER:                  -1.741
REMARK INTRA:                   0.000
REMARK UNBOUND:                 0.000
REMARK  Name = CT1001562328
REMARK  0 active torsions:
REMARK  status: ('A' for Active; 'I' for Inactive)
REMARK                            x       y       z     vdW  Elec       q    Type
REMARK                         _______ _______ _______ _____ _____    ______ ____
ROOT
ATOM      1  C   UNL     1       7.650   8.848  -4.898  0.00  0.00    +0.000 C 
ATOM      2  O   UNL     1       8.101   8.407  -3.867  0.00  0.00    +0.000 OA
ATOM      3  O   UNL     1       7.199   9.287  -5.929  0.00  0.00    +0.000 OA
ENDROOT
TORSDOF 0
ENDMDL
MODEL 5
REMARK VINA RESULT:    -1.700     17.527     17.767
REMARK INTER + INTRA:          -1.700
REMARK INTER:                  -1.700
REMARK INTRA:                   0.000
REMARK UNBOUND:                 0.000
REMARK  Name = CT1001562328
REMARK  0 active torsions:
REMARK  status: ('A' for Active; 'I' for Inactive)
REMARK                            x       y       z     vdW  Elec       q    Type
REMARK                         _______ _______ _______ _____ _____    ______ ____
ROOT
ATOM      1  C   UNL     1       7.968   9.085  -5.178  0.00  0.00    +0.000 C 
ATOM      2  O   UNL     1       6.878   8.979  -5.688  0.00  0.00    +0.000 OA
ATOM      3  O   UNL     1       9.057   9.191  -4.667  0.00  0.00    +0.000 OA
ENDROOT
TORSDOF 0
ENDMDL
