MODEL 1
REMARK VINA RESULT:    -2.216      0.000      0.000
REMARK INTER + INTRA:          -2.216
REMARK INTER:                  -2.216
REMARK INTRA:                   0.000
REMARK UNBOUND:                 0.000
REMARK  Name = CT1001562328
REMARK  0 active torsions:
REMARK  status: ('A' for Active; 'I' for Inactive)
REMARK                            x       y       z     vdW  Elec       q    Type
REMARK                         _______ _______ _______ _____ _____    ______ ____
ROOT
ATOM      1  C   UNL     1      -9.357   5.134  -3.691  0.00  0.00    +0.000 C 
ATOM      2  O   UNL     1      -9.932   6.073  -4.187  0.00  0.00    +0.000 OA
ATOM      3  O   UNL     1      -8.781   4.195  -3.195  0.00  0.00    +0.000 OA
ENDROOT
TORSDOF 0
ENDMDL
MODEL 2
REMARK VINA RESULT:    -2.216      0.032      1.973
REMARK INTER + INTRA:          -2.216
REMARK INTER:                  -2.216
REMARK INTRA:                   0.000
REMARK UNBOUND:                 0.000
REMARK  Name = CT1001562328
REMARK  0 active torsions:
REMARK  status: ('A' for Active; 'I' for Inactive)
REMARK                            x       y       z     vdW  Elec       q    Type
REMARK                         _______ _______ _______ _____ _____    ______ ____
ROOT
ATOM      1  C   UNL     1      -9.365   5.124  -3.670  0.00  0.00    +0.000 C 
ATOM      2  O   UNL     1      -8.811   4.177  -3.164  0.00  0.00    +0.000 OA
ATOM      3  O   UNL     1      -9.919   6.071  -4.175  0.00  0.00    +0.000 OA
ENDROOT
TORSDOF 0
ENDMDL
MODEL 3
REMARK VINA RESULT:    -2.002     22.590     22.843
REMARK INTER + INTRA:          -2.002
REMARK INTER:                  -2.002
REMARK INTRA:                   0.000
REMARK UNBOUND:                 0.000
REMARK  Name = CT1001562328
REMARK  0 active torsions:
REMARK  status: ('A' for Active; 'I' for Inactive)
REMARK                            x       y       z     vdW  Elec       q    Type
REMARK                         _______ _______ _______ _____ _____    ______ ____
ROOT
ATOM      1  C   UNL     1       9.575   8.107   8.707  0.00  0.00    +0.000 C 
ATOM      2  O   UNL     1       9.642   9.250   9.095  0.00  0.00    +0.000 OA
ATOM      3  O   UNL     1       9.508   6.965   8.320  0.00  0.00    +0.000 OA
ENDROOT
TORSDOF 0
ENDMDL
MODEL 4
REMARK VINA RESULT:    -1.799     19.246     19.893
REMARK INTER + INTRA:          -1.799
REMARK INTER:                  -1.799
REMARK INTRA:                   0.000
REMARK UNBOUND:                 0.000
REMARK  Name = CT1001562328
REMARK  0 active torsions:
REMARK  status: ('A' for Active; 'I' for Inactive)
REMARK                            x       y       z     vdW  Elec       q    Type
REMARK                         _______ _______ _______ _____ _____    ______ ____
ROOT
ATOM      1  C   UNL     1       5.916  -1.146   7.384  0.00  0.00    +0.000 C 
ATOM      2  O   UNL     1       5.421  -0.744   6.358  0.00  0.00    +0.000 OA
ATOM      3  O   UNL     1       6.410  -1.549   8.410  0.00  0.00    +0.000 OA
ENDROOT
TORSDOF 0
ENDMDL
MODEL 5
REMARK VINA RESULT:    -1.797     19.308     20.034
REMARK INTER + INTRA:          -1.797
REMARK INTER:                  -1.797
REMARK INTRA:                   0.000
REMARK UNBOUND:                 0.000
REMARK  Name = CT1001562328
REMARK  0 active torsions:
REMARK  status: ('A' for Active; 'I' for Inactive)
REMARK                            x       y       z     vdW  Elec       q    Type
REMARK                         _______ _______ _______ _____ _____    ______ ____
ROOT
ATOM      1  C   UNL     1       5.957  -1.155   7.435  0.00  0.00    +0.000 C 
ATOM      2  O   UNL     1       6.446  -1.548   8.468  0.00  0.00    +0.000 OA
ATOM      3  O   UNL     1       5.469  -0.762   6.402  0.00  0.00    +0.000 OA
ENDROOT
TORSDOF 0
ENDMDL
