MODEL 1
REMARK VINA RESULT:    -1.710      0.000      0.000
REMARK INTER + INTRA:          -1.710
REMARK INTER:                  -1.710
REMARK INTRA:                   0.000
REMARK UNBOUND:                 0.000
REMARK  Name = CT1001562328
REMARK  0 active torsions:
REMARK  status: ('A' for Active; 'I' for Inactive)
REMARK                            x       y       z     vdW  Elec       q    Type
REMARK                         _______ _______ _______ _____ _____    ______ ____
ROOT
ATOM      1  C   UNL     1      -1.054   9.010  -5.551  0.00  0.00    +0.000 C 
ATOM      2  O   UNL     1      -0.731   8.608  -4.459  0.00  0.00    +0.000 OA
ATOM      3  O   UNL     1      -1.377   9.414  -6.643  0.00  0.00    +0.000 OA
ENDROOT
TORSDOF 0
ENDMDL
MODEL 2
REMARK VINA RESULT:    -1.701      9.616      9.832
REMARK INTER + INTRA:          -1.701
REMARK INTER:                  -1.701
REMARK INTRA:                   0.000
REMARK UNBOUND:                 0.000
REMARK  Name = CT1001562328
REMARK  0 active torsions:
REMARK  status: ('A' for Active; 'I' for Inactive)
REMARK                            x       y       z     vdW  Elec       q    Type
REMARK                         _______ _______ _______ _____ _____    ______ ____
ROOT
ATOM      1  C   UNL     1       6.291   2.538  -4.792  0.00  0.00    +0.000 C 
ATOM      2  O   UNL     1       6.131   1.782  -3.863  0.00  0.00    +0.000 OA
ATOM      3  O   UNL     1       6.450   3.294  -5.720  0.00  0.00    +0.000 OA
ENDROOT
TORSDOF 0
ENDMDL
MODEL 3
REMARK VINA RESULT:    -1.699      3.093      3.093
REMARK INTER + INTRA:          -1.699
REMARK INTER:                  -1.699
REMARK INTRA:                   0.000
REMARK UNBOUND:                 0.000
REMARK  Name = CT1001562328
REMARK  0 active torsions:
REMARK  status: ('A' for Active; 'I' for Inactive)
REMARK                            x       y       z     vdW  Elec       q    Type
REMARK                         _______ _______ _______ _____ _____    ______ ____
ROOT
ATOM      1  C   UNL     1       0.907   8.221  -7.750  0.00  0.00    +0.000 C 
ATOM      2  O   UNL     1       1.674   8.233  -6.816  0.00  0.00    +0.000 OA
ATOM      3  O   UNL     1       0.139   8.208  -8.683  0.00  0.00    +0.000 OA
ENDROOT
TORSDOF 0
ENDMDL
MODEL 4
REMARK VINA RESULT:    -1.698      0.072      1.973
REMARK INTER + INTRA:          -1.698
REMARK INTER:                  -1.698
REMARK INTRA:                   0.000
REMARK UNBOUND:                 0.000
REMARK  Name = CT1001562328
REMARK  0 active torsions:
REMARK  status: ('A' for Active; 'I' for Inactive)
REMARK                            x       y       z     vdW  Elec       q    Type
REMARK                         _______ _______ _______ _____ _____    ______ ____
ROOT
ATOM      1  C   UNL     1      -1.095   8.973  -5.571  0.00  0.00    +0.000 C 
ATOM      2  O   UNL     1      -1.440   9.332  -6.672  0.00  0.00    +0.000 OA
ATOM      3  O   UNL     1      -0.751   8.615  -4.470  0.00  0.00    +0.000 OA
ENDROOT
TORSDOF 0
ENDMDL
MODEL 5
REMARK VINA RESULT:    -1.688      9.560     10.055
REMARK INTER + INTRA:          -1.688
REMARK INTER:                  -1.688
REMARK INTRA:                   0.000
REMARK UNBOUND:                 0.000
REMARK  Name = CT1001562328
REMARK  0 active torsions:
REMARK  status: ('A' for Active; 'I' for Inactive)
REMARK                            x       y       z     vdW  Elec       q    Type
REMARK                         _______ _______ _______ _____ _____    ______ ____
ROOT
ATOM      1  C   UNL     1       6.133   2.306  -4.550  0.00  0.00    +0.000 C 
ATOM      2  O   UNL     1       6.200   3.274  -5.270  0.00  0.00    +0.000 OA
ATOM      3  O   UNL     1       6.066   1.338  -3.830  0.00  0.00    +0.000 OA
ENDROOT
TORSDOF 0
ENDMDL
