MODEL 1
REMARK VINA RESULT:    -1.896      0.000      0.000
REMARK INTER + INTRA:          -1.896
REMARK INTER:                  -1.896
REMARK INTRA:                   0.000
REMARK UNBOUND:                 0.000
REMARK  Name = CT1001562328
REMARK  0 active torsions:
REMARK  status: ('A' for Active; 'I' for Inactive)
REMARK                            x       y       z     vdW  Elec       q    Type
REMARK                         _______ _______ _______ _____ _____    ______ ____
ROOT
ATOM      1  C   UNL     1       5.986   1.146  -2.470  0.00  0.00    +0.000 C 
ATOM      2  O   UNL     1       5.772   2.316  -2.260  0.00  0.00    +0.000 OA
ATOM      3  O   UNL     1       6.200  -0.024  -2.680  0.00  0.00    +0.000 OA
ENDROOT
TORSDOF 0
ENDMDL
MODEL 2
REMARK VINA RESULT:    -1.895      0.040      1.973
REMARK INTER + INTRA:          -1.895
REMARK INTER:                  -1.895
REMARK INTRA:                   0.000
REMARK UNBOUND:                 0.000
REMARK  Name = CT1001562328
REMARK  0 active torsions:
REMARK  status: ('A' for Active; 'I' for Inactive)
REMARK                            x       y       z     vdW  Elec       q    Type
REMARK                         _______ _______ _______ _____ _____    ______ ____
ROOT
ATOM      1  C   UNL     1       5.986   1.137  -2.482  0.00  0.00    +0.000 C 
ATOM      2  O   UNL     1       6.243  -0.027  -2.680  0.00  0.00    +0.000 OA
ATOM      3  O   UNL     1       5.728   2.301  -2.284  0.00  0.00    +0.000 OA
ENDROOT
TORSDOF 0
ENDMDL
MODEL 3
REMARK VINA RESULT:    -1.853     14.083     14.224
REMARK INTER + INTRA:          -1.853
REMARK INTER:                  -1.853
REMARK INTRA:                   0.000
REMARK UNBOUND:                 0.000
REMARK  Name = CT1001562328
REMARK  0 active torsions:
REMARK  status: ('A' for Active; 'I' for Inactive)
REMARK                            x       y       z     vdW  Elec       q    Type
REMARK                         _______ _______ _______ _____ _____    ______ ____
ROOT
ATOM      1  C   UNL     1      -7.817   0.686  -5.311  0.00  0.00    +0.000 C 
ATOM      2  O   UNL     1      -7.133  -0.065  -5.965  0.00  0.00    +0.000 OA
ATOM      3  O   UNL     1      -8.502   1.436  -4.656  0.00  0.00    +0.000 OA
ENDROOT
TORSDOF 0
ENDMDL
MODEL 4
REMARK VINA RESULT:    -1.853     14.084     14.116
REMARK INTER + INTRA:          -1.853
REMARK INTER:                  -1.853
REMARK INTRA:                   0.000
REMARK UNBOUND:                 0.000
REMARK  Name = CT1001562328
REMARK  0 active torsions:
REMARK  status: ('A' for Active; 'I' for Inactive)
REMARK                            x       y       z     vdW  Elec       q    Type
REMARK                         _______ _______ _______ _____ _____    ______ ____
ROOT
ATOM      1  C   UNL     1      -7.818   0.688  -5.312  0.00  0.00    +0.000 C 
ATOM      2  O   UNL     1      -8.505   1.437  -4.659  0.00  0.00    +0.000 OA
ATOM      3  O   UNL     1      -7.132  -0.062  -5.965  0.00  0.00    +0.000 OA
ENDROOT
TORSDOF 0
ENDMDL
MODEL 5
REMARK VINA RESULT:    -1.783      1.157      1.767
REMARK INTER + INTRA:          -1.783
REMARK INTER:                  -1.783
REMARK INTRA:                   0.000
REMARK UNBOUND:                 0.000
REMARK  Name = CT1001562328
REMARK  0 active torsions:
REMARK  status: ('A' for Active; 'I' for Inactive)
REMARK                            x       y       z     vdW  Elec       q    Type
REMARK                         _______ _______ _______ _____ _____    ______ ____
ROOT
ATOM      1  C   UNL     1       6.404   1.247  -2.155  0.00  0.00    +0.000 C 
ATOM      2  O   UNL     1       7.444   0.791  -1.743  0.00  0.00    +0.000 OA
ATOM      3  O   UNL     1       5.364   1.701  -2.568  0.00  0.00    +0.000 OA
ENDROOT
TORSDOF 0
ENDMDL
