MODEL 1
REMARK VINA RESULT:    -2.075      0.000      0.000
REMARK INTER + INTRA:          -2.075
REMARK INTER:                  -2.075
REMARK INTRA:                   0.000
REMARK UNBOUND:                 0.000
REMARK  Name = CT1001562328
REMARK  0 active torsions:
REMARK  status: ('A' for Active; 'I' for Inactive)
REMARK                            x       y       z     vdW  Elec       q    Type
REMARK                         _______ _______ _______ _____ _____    ______ ____
ROOT
ATOM      1  C   UNL     1      -7.598   7.454  -1.275  0.00  0.00    +0.000 C 
ATOM      2  O   UNL     1      -8.231   8.460  -1.489  0.00  0.00    +0.000 OA
ATOM      3  O   UNL     1      -6.964   6.449  -1.059  0.00  0.00    +0.000 OA
ENDROOT
TORSDOF 0
ENDMDL
MODEL 2
REMARK VINA RESULT:    -2.039      0.173      1.978
REMARK INTER + INTRA:          -2.039
REMARK INTER:                  -2.039
REMARK INTRA:                   0.000
REMARK UNBOUND:                 0.000
REMARK  Name = CT1001562328
REMARK  0 active torsions:
REMARK  status: ('A' for Active; 'I' for Inactive)
REMARK                            x       y       z     vdW  Elec       q    Type
REMARK                         _______ _______ _______ _____ _____    ______ ____
ROOT
ATOM      1  C   UNL     1      -7.540   7.308  -1.266  0.00  0.00    +0.000 C 
ATOM      2  O   UNL     1      -6.834   6.346  -1.076  0.00  0.00    +0.000 OA
ATOM      3  O   UNL     1      -8.244   8.270  -1.458  0.00  0.00    +0.000 OA
ENDROOT
TORSDOF 0
ENDMDL
MODEL 3
REMARK VINA RESULT:    -1.815      2.054      2.492
REMARK INTER + INTRA:          -1.815
REMARK INTER:                  -1.815
REMARK INTRA:                   0.000
REMARK UNBOUND:                 0.000
REMARK  Name = CT1001562328
REMARK  0 active torsions:
REMARK  status: ('A' for Active; 'I' for Inactive)
REMARK                            x       y       z     vdW  Elec       q    Type
REMARK                         _______ _______ _______ _____ _____    ______ ____
ROOT
ATOM      1  C   UNL     1      -6.972   5.498  -0.210  0.00  0.00    +0.000 C 
ATOM      2  O   UNL     1      -6.700   6.293  -1.079  0.00  0.00    +0.000 OA
ATOM      3  O   UNL     1      -7.245   4.704   0.659  0.00  0.00    +0.000 OA
ENDROOT
TORSDOF 0
ENDMDL
MODEL 4
REMARK VINA RESULT:    -1.806      2.034      2.875
REMARK INTER + INTRA:          -1.806
REMARK INTER:                  -1.806
REMARK INTRA:                   0.000
REMARK UNBOUND:                 0.000
REMARK  Name = CT1001562328
REMARK  0 active torsions:
REMARK  status: ('A' for Active; 'I' for Inactive)
REMARK                            x       y       z     vdW  Elec       q    Type
REMARK                         _______ _______ _______ _____ _____    ______ ____
ROOT
ATOM      1  C   UNL     1      -6.985   5.514  -0.226  0.00  0.00    +0.000 C 
ATOM      2  O   UNL     1      -7.251   4.726   0.649  0.00  0.00    +0.000 OA
ATOM      3  O   UNL     1      -6.719   6.304  -1.101  0.00  0.00    +0.000 OA
ENDROOT
TORSDOF 0
ENDMDL
MODEL 5
REMARK VINA RESULT:    -1.721     18.373     19.124
REMARK INTER + INTRA:          -1.721
REMARK INTER:                  -1.721
REMARK INTRA:                   0.000
REMARK UNBOUND:                 0.000
REMARK  Name = CT1001562328
REMARK  0 active torsions:
REMARK  status: ('A' for Active; 'I' for Inactive)
REMARK                            x       y       z     vdW  Elec       q    Type
REMARK                         _______ _______ _______ _____ _____    ______ ____
ROOT
ATOM      1  C   UNL     1       8.348  -1.163   4.538  0.00  0.00    +0.000 C 
ATOM      2  O   UNL     1       9.113  -1.591   5.370  0.00  0.00    +0.000 OA
ATOM      3  O   UNL     1       7.583  -0.737   3.706  0.00  0.00    +0.000 OA
ENDROOT
TORSDOF 0
ENDMDL
