MODEL 1
REMARK VINA RESULT:    -1.744      0.000      0.000
REMARK INTER + INTRA:          -1.744
REMARK INTER:                  -1.744
REMARK INTRA:                   0.000
REMARK UNBOUND:                 0.000
REMARK  Name = CT1001562328
REMARK  0 active torsions:
REMARK  status: ('A' for Active; 'I' for Inactive)
REMARK                            x       y       z     vdW  Elec       q    Type
REMARK                         _______ _______ _______ _____ _____    ______ ____
ROOT
ATOM      1  C   UNL     1      -0.824   8.911  -6.414  0.00  0.00    +0.000 C 
ATOM      2  O   UNL     1      -1.309   9.227  -5.353  0.00  0.00    +0.000 OA
ATOM      3  O   UNL     1      -0.339   8.594  -7.474  0.00  0.00    +0.000 OA
ENDROOT
TORSDOF 0
ENDMDL
MODEL 2
REMARK VINA RESULT:    -1.719      1.063      1.063
REMARK INTER + INTRA:          -1.719
REMARK INTER:                  -1.719
REMARK INTRA:                   0.000
REMARK UNBOUND:                 0.000
REMARK  Name = CT1001562328
REMARK  0 active torsions:
REMARK  status: ('A' for Active; 'I' for Inactive)
REMARK                            x       y       z     vdW  Elec       q    Type
REMARK                         _______ _______ _______ _____ _____    ______ ____
ROOT
ATOM      1  C   UNL     1      -0.978   8.951  -5.662  0.00  0.00    +0.000 C 
ATOM      2  O   UNL     1      -0.799   8.668  -4.501  0.00  0.00    +0.000 OA
ATOM      3  O   UNL     1      -1.156   9.233  -6.823  0.00  0.00    +0.000 OA
ENDROOT
TORSDOF 0
ENDMDL
MODEL 3
REMARK VINA RESULT:    -1.711      1.262      1.985
REMARK INTER + INTRA:          -1.711
REMARK INTER:                  -1.711
REMARK INTRA:                   0.000
REMARK UNBOUND:                 0.000
REMARK  Name = CT1001562328
REMARK  0 active torsions:
REMARK  status: ('A' for Active; 'I' for Inactive)
REMARK                            x       y       z     vdW  Elec       q    Type
REMARK                         _______ _______ _______ _____ _____    ______ ____
ROOT
ATOM      1  C   UNL     1      -1.035   9.013  -5.539  0.00  0.00    +0.000 C 
ATOM      2  O   UNL     1      -1.341   9.425  -6.632  0.00  0.00    +0.000 OA
ATOM      3  O   UNL     1      -0.731   8.600  -4.445  0.00  0.00    +0.000 OA
ENDROOT
TORSDOF 0
ENDMDL
MODEL 4
REMARK VINA RESULT:    -1.710      9.522      9.729
REMARK INTER + INTRA:          -1.710
REMARK INTER:                  -1.710
REMARK INTRA:                   0.000
REMARK UNBOUND:                 0.000
REMARK  Name = CT1001562328
REMARK  0 active torsions:
REMARK  status: ('A' for Active; 'I' for Inactive)
REMARK                            x       y       z     vdW  Elec       q    Type
REMARK                         _______ _______ _______ _____ _____    ______ ____
ROOT
ATOM      1  C   UNL     1       6.176   2.454  -4.719  0.00  0.00    +0.000 C 
ATOM      2  O   UNL     1       5.973   1.563  -3.928  0.00  0.00    +0.000 OA
ATOM      3  O   UNL     1       6.381   3.345  -5.509  0.00  0.00    +0.000 OA
ENDROOT
TORSDOF 0
ENDMDL
MODEL 5
REMARK VINA RESULT:    -1.708      9.504      9.805
REMARK INTER + INTRA:          -1.708
REMARK INTER:                  -1.708
REMARK INTRA:                   0.000
REMARK UNBOUND:                 0.000
REMARK  Name = CT1001562328
REMARK  0 active torsions:
REMARK  status: ('A' for Active; 'I' for Inactive)
REMARK                            x       y       z     vdW  Elec       q    Type
REMARK                         _______ _______ _______ _____ _____    ______ ____
ROOT
ATOM      1  C   UNL     1       6.180   2.469  -4.760  0.00  0.00    +0.000 C 
ATOM      2  O   UNL     1       6.410   3.354  -5.550  0.00  0.00    +0.000 OA
ATOM      3  O   UNL     1       5.951   1.584  -3.970  0.00  0.00    +0.000 OA
ENDROOT
TORSDOF 0
ENDMDL
