MODEL 1
REMARK VINA RESULT:    -2.070      0.000      0.000
REMARK INTER + INTRA:          -2.070
REMARK INTER:                  -2.070
REMARK INTRA:                   0.000
REMARK UNBOUND:                 0.000
REMARK  Name = CT1001562328
REMARK  0 active torsions:
REMARK  status: ('A' for Active; 'I' for Inactive)
REMARK                            x       y       z     vdW  Elec       q    Type
REMARK                         _______ _______ _______ _____ _____    ______ ____
ROOT
ATOM      1  C   UNL     1      -7.600   7.444  -1.279  0.00  0.00    +0.000 C 
ATOM      2  O   UNL     1      -6.960   6.441  -1.071  0.00  0.00    +0.000 OA
ATOM      3  O   UNL     1      -8.240   8.448  -1.486  0.00  0.00    +0.000 OA
ENDROOT
TORSDOF 0
ENDMDL
MODEL 2
REMARK VINA RESULT:    -2.052      0.125      1.977
REMARK INTER + INTRA:          -2.052
REMARK INTER:                  -2.052
REMARK INTRA:                   0.000
REMARK UNBOUND:                 0.000
REMARK  Name = CT1001562328
REMARK  0 active torsions:
REMARK  status: ('A' for Active; 'I' for Inactive)
REMARK                            x       y       z     vdW  Elec       q    Type
REMARK                         _______ _______ _______ _____ _____    ______ ____
ROOT
ATOM      1  C   UNL     1      -7.521   7.349  -1.267  0.00  0.00    +0.000 C 
ATOM      2  O   UNL     1      -8.174   8.348  -1.458  0.00  0.00    +0.000 OA
ATOM      3  O   UNL     1      -6.869   6.350  -1.076  0.00  0.00    +0.000 OA
ENDROOT
TORSDOF 0
ENDMDL
MODEL 3
REMARK VINA RESULT:    -1.815      2.049      2.488
REMARK INTER + INTRA:          -1.815
REMARK INTER:                  -1.815
REMARK INTRA:                   0.000
REMARK UNBOUND:                 0.000
REMARK  Name = CT1001562328
REMARK  0 active torsions:
REMARK  status: ('A' for Active; 'I' for Inactive)
REMARK                            x       y       z     vdW  Elec       q    Type
REMARK                         _______ _______ _______ _____ _____    ______ ____
ROOT
ATOM      1  C   UNL     1      -6.970   5.503  -0.210  0.00  0.00    +0.000 C 
ATOM      2  O   UNL     1      -7.243   4.717   0.666  0.00  0.00    +0.000 OA
ATOM      3  O   UNL     1      -6.699   6.289  -1.087  0.00  0.00    +0.000 OA
ENDROOT
TORSDOF 0
ENDMDL
MODEL 4
REMARK VINA RESULT:    -1.800      1.994      2.844
REMARK INTER + INTRA:          -1.800
REMARK INTER:                  -1.800
REMARK INTRA:                   0.000
REMARK UNBOUND:                 0.000
REMARK  Name = CT1001562328
REMARK  0 active torsions:
REMARK  status: ('A' for Active; 'I' for Inactive)
REMARK                            x       y       z     vdW  Elec       q    Type
REMARK                         _______ _______ _______ _____ _____    ______ ____
ROOT
ATOM      1  C   UNL     1      -6.950   5.554  -0.262  0.00  0.00    +0.000 C 
ATOM      2  O   UNL     1      -6.710   6.358  -1.131  0.00  0.00    +0.000 OA
ATOM      3  O   UNL     1      -7.189   4.751   0.609  0.00  0.00    +0.000 OA
ENDROOT
TORSDOF 0
ENDMDL
MODEL 5
REMARK VINA RESULT:    -1.721     18.372     19.124
REMARK INTER + INTRA:          -1.721
REMARK INTER:                  -1.721
REMARK INTRA:                   0.000
REMARK UNBOUND:                 0.000
REMARK  Name = CT1001562328
REMARK  0 active torsions:
REMARK  status: ('A' for Active; 'I' for Inactive)
REMARK                            x       y       z     vdW  Elec       q    Type
REMARK                         _______ _______ _______ _____ _____    ______ ____
ROOT
ATOM      1  C   UNL     1       8.349  -1.165   4.540  0.00  0.00    +0.000 C 
ATOM      2  O   UNL     1       7.583  -0.741   3.707  0.00  0.00    +0.000 OA
ATOM      3  O   UNL     1       9.115  -1.589   5.372  0.00  0.00    +0.000 OA
ENDROOT
TORSDOF 0
ENDMDL
