MODEL 1
REMARK VINA RESULT:    -1.696      0.000      0.000
REMARK INTER + INTRA:          -1.696
REMARK INTER:                  -1.696
REMARK INTRA:                   0.000
REMARK UNBOUND:                 0.000
REMARK  Name = CT1001562328
REMARK  0 active torsions:
REMARK  status: ('A' for Active; 'I' for Inactive)
REMARK                            x       y       z     vdW  Elec       q    Type
REMARK                         _______ _______ _______ _____ _____    ______ ____
ROOT
ATOM      1  C   UNL     1      -4.280   9.911   2.571  0.00  0.00    +0.000 C 
ATOM      2  O   UNL     1      -3.149   9.842   2.989  0.00  0.00    +0.000 OA
ATOM      3  O   UNL     1      -5.412   9.980   2.154  0.00  0.00    +0.000 OA
ENDROOT
TORSDOF 0
ENDMDL
MODEL 2
REMARK VINA RESULT:    -1.623     16.807     17.095
REMARK INTER + INTRA:          -1.623
REMARK INTER:                  -1.623
REMARK INTRA:                   0.000
REMARK UNBOUND:                 0.000
REMARK  Name = CT1001562328
REMARK  0 active torsions:
REMARK  status: ('A' for Active; 'I' for Inactive)
REMARK                            x       y       z     vdW  Elec       q    Type
REMARK                         _______ _______ _______ _____ _____    ______ ____
ROOT
ATOM      1  C   UNL     1       6.218  -0.066  -6.508  0.00  0.00    +0.000 C 
ATOM      2  O   UNL     1       7.301  -0.277  -6.016  0.00  0.00    +0.000 OA
ATOM      3  O   UNL     1       5.135   0.143  -7.000  0.00  0.00    +0.000 OA
ENDROOT
TORSDOF 0
ENDMDL
MODEL 3
REMARK VINA RESULT:    -1.617     16.843     17.226
REMARK INTER + INTRA:          -1.617
REMARK INTER:                  -1.617
REMARK INTRA:                   0.000
REMARK UNBOUND:                 0.000
REMARK  Name = CT1001562328
REMARK  0 active torsions:
REMARK  status: ('A' for Active; 'I' for Inactive)
REMARK                            x       y       z     vdW  Elec       q    Type
REMARK                         _______ _______ _______ _____ _____    ______ ____
ROOT
ATOM      1  C   UNL     1       6.289  -0.062  -6.466  0.00  0.00    +0.000 C 
ATOM      2  O   UNL     1       5.199   0.074  -6.969  0.00  0.00    +0.000 OA
ATOM      3  O   UNL     1       7.379  -0.198  -5.962  0.00  0.00    +0.000 OA
ENDROOT
TORSDOF 0
ENDMDL
MODEL 4
REMARK VINA RESULT:    -1.607     16.437     16.499
REMARK INTER + INTRA:          -1.607
REMARK INTER:                  -1.607
REMARK INTRA:                   0.000
REMARK UNBOUND:                 0.000
REMARK  Name = CT1001562328
REMARK  0 active torsions:
REMARK  status: ('A' for Active; 'I' for Inactive)
REMARK                            x       y       z     vdW  Elec       q    Type
REMARK                         _______ _______ _______ _____ _____    ______ ____
ROOT
ATOM      1  C   UNL     1       8.954   0.519  -0.215  0.00  0.00    +0.000 C 
ATOM      2  O   UNL     1       9.555   1.560  -0.090  0.00  0.00    +0.000 OA
ATOM      3  O   UNL     1       8.355  -0.523  -0.340  0.00  0.00    +0.000 OA
ENDROOT
TORSDOF 0
ENDMDL
MODEL 5
REMARK VINA RESULT:    -1.606     17.615     18.051
REMARK INTER + INTRA:          -1.606
REMARK INTER:                  -1.606
REMARK INTRA:                   0.000
REMARK UNBOUND:                 0.000
REMARK  Name = CT1001562328
REMARK  0 active torsions:
REMARK  status: ('A' for Active; 'I' for Inactive)
REMARK                            x       y       z     vdW  Elec       q    Type
REMARK                         _______ _______ _______ _____ _____    ______ ____
ROOT
ATOM      1  C   UNL     1       7.512  -0.718  -5.820  0.00  0.00    +0.000 C 
ATOM      2  O   UNL     1       6.747   0.113  -6.249  0.00  0.00    +0.000 OA
ATOM      3  O   UNL     1       8.276  -1.549  -5.389  0.00  0.00    +0.000 OA
ENDROOT
TORSDOF 0
ENDMDL
