MODEL 1
REMARK VINA RESULT:    -2.029      0.000      0.000
REMARK INTER + INTRA:          -2.029
REMARK INTER:                  -2.029
REMARK INTRA:                   0.000
REMARK UNBOUND:                 0.000
REMARK  Name = CT1001562328
REMARK  0 active torsions:
REMARK  status: ('A' for Active; 'I' for Inactive)
REMARK                            x       y       z     vdW  Elec       q    Type
REMARK                         _______ _______ _______ _____ _____    ______ ____
ROOT
ATOM      1  C   UNL     1       2.670   3.404   1.128  0.00  0.00    +0.000 C 
ATOM      2  O   UNL     1       2.647   2.689   0.154  0.00  0.00    +0.000 OA
ATOM      3  O   UNL     1       2.692   4.119   2.101  0.00  0.00    +0.000 OA
ENDROOT
TORSDOF 0
ENDMDL
MODEL 2
REMARK VINA RESULT:    -1.809      8.665      9.082
REMARK INTER + INTRA:          -1.809
REMARK INTER:                  -1.809
REMARK INTRA:                   0.000
REMARK UNBOUND:                 0.000
REMARK  Name = CT1001562328
REMARK  0 active torsions:
REMARK  status: ('A' for Active; 'I' for Inactive)
REMARK                            x       y       z     vdW  Elec       q    Type
REMARK                         _______ _______ _______ _____ _____    ______ ____
ROOT
ATOM      1  C   UNL     1       4.667   2.065   9.738  0.00  0.00    +0.000 C 
ATOM      2  O   UNL     1       4.308   3.168   9.402  0.00  0.00    +0.000 OA
ATOM      3  O   UNL     1       5.027   0.962  10.074  0.00  0.00    +0.000 OA
ENDROOT
TORSDOF 0
ENDMDL
MODEL 3
REMARK VINA RESULT:    -1.770      8.627      8.974
REMARK INTER + INTRA:          -1.770
REMARK INTER:                  -1.770
REMARK INTRA:                   0.000
REMARK UNBOUND:                 0.000
REMARK  Name = CT1001562328
REMARK  0 active torsions:
REMARK  status: ('A' for Active; 'I' for Inactive)
REMARK                            x       y       z     vdW  Elec       q    Type
REMARK                         _______ _______ _______ _____ _____    ______ ____
ROOT
ATOM      1  C   UNL     1       4.500   2.191   9.750  0.00  0.00    +0.000 C 
ATOM      2  O   UNL     1       4.725   1.065  10.125  0.00  0.00    +0.000 OA
ATOM      3  O   UNL     1       4.275   3.318   9.376  0.00  0.00    +0.000 OA
ENDROOT
TORSDOF 0
ENDMDL
MODEL 4
REMARK VINA RESULT:    -1.740      8.934      9.476
REMARK INTER + INTRA:          -1.740
REMARK INTER:                  -1.740
REMARK INTRA:                   0.000
REMARK UNBOUND:                 0.000
REMARK  Name = CT1001562328
REMARK  0 active torsions:
REMARK  status: ('A' for Active; 'I' for Inactive)
REMARK                            x       y       z     vdW  Elec       q    Type
REMARK                         _______ _______ _______ _____ _____    ______ ____
ROOT
ATOM      1  C   UNL     1       6.696   6.413   8.952  0.00  0.00    +0.000 C 
ATOM      2  O   UNL     1       7.035   7.553   9.164  0.00  0.00    +0.000 OA
ATOM      3  O   UNL     1       6.357   5.273   8.739  0.00  0.00    +0.000 OA
ENDROOT
TORSDOF 0
ENDMDL
MODEL 5
REMARK VINA RESULT:    -1.737      8.645      8.746
REMARK INTER + INTRA:          -1.737
REMARK INTER:                  -1.737
REMARK INTRA:                   0.000
REMARK UNBOUND:                 0.000
REMARK  Name = CT1001562328
REMARK  0 active torsions:
REMARK  status: ('A' for Active; 'I' for Inactive)
REMARK                            x       y       z     vdW  Elec       q    Type
REMARK                         _______ _______ _______ _____ _____    ______ ____
ROOT
ATOM      1  C   UNL     1       1.379   4.048   9.633  0.00  0.00    +0.000 C 
ATOM      2  O   UNL     1       0.398   4.667   9.294  0.00  0.00    +0.000 OA
ATOM      3  O   UNL     1       2.359   3.428   9.971  0.00  0.00    +0.000 OA
ENDROOT
TORSDOF 0
ENDMDL
