MODEL 1
REMARK VINA RESULT:    -1.865      0.000      0.000
REMARK INTER + INTRA:          -1.865
REMARK INTER:                  -1.865
REMARK INTRA:                   0.000
REMARK UNBOUND:                 0.000
REMARK  Name = CT1001562328
REMARK  0 active torsions:
REMARK  status: ('A' for Active; 'I' for Inactive)
REMARK                            x       y       z     vdW  Elec       q    Type
REMARK                         _______ _______ _______ _____ _____    ______ ____
ROOT
ATOM      1  C   UNL     1      -3.413   3.319   5.182  0.00  0.00    +0.000 C 
ATOM      2  O   UNL     1      -2.631   2.420   4.981  0.00  0.00    +0.000 OA
ATOM      3  O   UNL     1      -4.194   4.218   5.385  0.00  0.00    +0.000 OA
ENDROOT
TORSDOF 0
ENDMDL
MODEL 2
REMARK VINA RESULT:    -1.865      0.007      1.973
REMARK INTER + INTRA:          -1.865
REMARK INTER:                  -1.865
REMARK INTRA:                   0.000
REMARK UNBOUND:                 0.000
REMARK  Name = CT1001562328
REMARK  0 active torsions:
REMARK  status: ('A' for Active; 'I' for Inactive)
REMARK                            x       y       z     vdW  Elec       q    Type
REMARK                         _______ _______ _______ _____ _____    ______ ____
ROOT
ATOM      1  C   UNL     1      -3.412   3.317   5.182  0.00  0.00    +0.000 C 
ATOM      2  O   UNL     1      -4.192   4.216   5.392  0.00  0.00    +0.000 OA
ATOM      3  O   UNL     1      -2.634   2.417   4.972  0.00  0.00    +0.000 OA
ENDROOT
TORSDOF 0
ENDMDL
MODEL 3
REMARK VINA RESULT:    -1.631      8.236      8.349
REMARK INTER + INTRA:          -1.631
REMARK INTER:                  -1.631
REMARK INTRA:                   0.000
REMARK UNBOUND:                 0.000
REMARK  Name = CT1001562328
REMARK  0 active torsions:
REMARK  status: ('A' for Active; 'I' for Inactive)
REMARK                            x       y       z     vdW  Elec       q    Type
REMARK                         _______ _______ _______ _____ _____    ______ ____
ROOT
ATOM      1  C   UNL     1     -10.125  -0.409   2.236  0.00  0.00    +0.000 C 
ATOM      2  O   UNL     1     -10.125  -0.034   1.087  0.00  0.00    +0.000 OA
ATOM      3  O   UNL     1     -10.124  -0.782   3.385  0.00  0.00    +0.000 OA
ENDROOT
TORSDOF 0
ENDMDL
MODEL 4
REMARK VINA RESULT:    -1.619      9.809      9.937
REMARK INTER + INTRA:          -1.619
REMARK INTER:                  -1.619
REMARK INTRA:                   0.000
REMARK UNBOUND:                 0.000
REMARK  Name = CT1001562328
REMARK  0 active torsions:
REMARK  status: ('A' for Active; 'I' for Inactive)
REMARK                            x       y       z     vdW  Elec       q    Type
REMARK                         _______ _______ _______ _____ _____    ______ ____
ROOT
ATOM      1  C   UNL     1      -6.498  -4.930   0.649  0.00  0.00    +0.000 C 
ATOM      2  O   UNL     1      -5.478  -5.267   1.202  0.00  0.00    +0.000 OA
ATOM      3  O   UNL     1      -7.518  -4.594   0.097  0.00  0.00    +0.000 OA
ENDROOT
TORSDOF 0
ENDMDL
MODEL 5
REMARK VINA RESULT:    -1.610     20.078     20.289
REMARK INTER + INTRA:          -1.610
REMARK INTER:                  -1.610
REMARK INTRA:                   0.000
REMARK UNBOUND:                 0.000
REMARK  Name = CT1001562328
REMARK  0 active torsions:
REMARK  status: ('A' for Active; 'I' for Inactive)
REMARK                            x       y       z     vdW  Elec       q    Type
REMARK                         _______ _______ _______ _____ _____    ______ ____
ROOT
ATOM      1  C   UNL     1       8.612  -5.403  -8.590  0.00  0.00    +0.000 C 
ATOM      2  O   UNL     1       8.009  -6.365  -9.003  0.00  0.00    +0.000 OA
ATOM      3  O   UNL     1       9.214  -4.441  -8.175  0.00  0.00    +0.000 OA
ENDROOT
TORSDOF 0
ENDMDL
