MODEL 1
REMARK VINA RESULT:    -1.896      0.000      0.000
REMARK INTER + INTRA:          -1.896
REMARK INTER:                  -1.896
REMARK INTRA:                   0.000
REMARK UNBOUND:                 0.000
REMARK  Name = CT1001562328
REMARK  0 active torsions:
REMARK  status: ('A' for Active; 'I' for Inactive)
REMARK                            x       y       z     vdW  Elec       q    Type
REMARK                         _______ _______ _______ _____ _____    ______ ____
ROOT
ATOM      1  C   UNL     1       6.012   1.139  -2.454  0.00  0.00    +0.000 C 
ATOM      2  O   UNL     1       5.722   2.297  -2.270  0.00  0.00    +0.000 OA
ATOM      3  O   UNL     1       6.304  -0.019  -2.638  0.00  0.00    +0.000 OA
ENDROOT
TORSDOF 0
ENDMDL
MODEL 2
REMARK VINA RESULT:    -1.896      0.025      1.973
REMARK INTER + INTRA:          -1.896
REMARK INTER:                  -1.896
REMARK INTRA:                   0.000
REMARK UNBOUND:                 0.000
REMARK  Name = CT1001562328
REMARK  0 active torsions:
REMARK  status: ('A' for Active; 'I' for Inactive)
REMARK                            x       y       z     vdW  Elec       q    Type
REMARK                         _______ _______ _______ _____ _____    ______ ____
ROOT
ATOM      1  C   UNL     1       6.025   1.141  -2.438  0.00  0.00    +0.000 C 
ATOM      2  O   UNL     1       6.306  -0.018  -2.635  0.00  0.00    +0.000 OA
ATOM      3  O   UNL     1       5.745   2.299  -2.240  0.00  0.00    +0.000 OA
ENDROOT
TORSDOF 0
ENDMDL
MODEL 3
REMARK VINA RESULT:    -1.852     14.079     14.163
REMARK INTER + INTRA:          -1.852
REMARK INTER:                  -1.852
REMARK INTRA:                   0.000
REMARK UNBOUND:                 0.000
REMARK  Name = CT1001562328
REMARK  0 active torsions:
REMARK  status: ('A' for Active; 'I' for Inactive)
REMARK                            x       y       z     vdW  Elec       q    Type
REMARK                         _______ _______ _______ _____ _____    ______ ____
ROOT
ATOM      1  C   UNL     1      -7.838   0.695  -5.324  0.00  0.00    +0.000 C 
ATOM      2  O   UNL     1      -8.533   1.452  -4.688  0.00  0.00    +0.000 OA
ATOM      3  O   UNL     1      -7.141  -0.060  -5.960  0.00  0.00    +0.000 OA
ENDROOT
TORSDOF 0
ENDMDL
MODEL 4
REMARK VINA RESULT:    -1.850     14.071     14.268
REMARK INTER + INTRA:          -1.850
REMARK INTER:                  -1.850
REMARK INTRA:                   0.000
REMARK UNBOUND:                 0.000
REMARK  Name = CT1001562328
REMARK  0 active torsions:
REMARK  status: ('A' for Active; 'I' for Inactive)
REMARK                            x       y       z     vdW  Elec       q    Type
REMARK                         _______ _______ _______ _____ _____    ______ ____
ROOT
ATOM      1  C   UNL     1      -7.838   0.718  -5.291  0.00  0.00    +0.000 C 
ATOM      2  O   UNL     1      -7.139  -0.024  -5.939  0.00  0.00    +0.000 OA
ATOM      3  O   UNL     1      -8.537   1.462  -4.645  0.00  0.00    +0.000 OA
ENDROOT
TORSDOF 0
ENDMDL
MODEL 5
REMARK VINA RESULT:    -1.819      0.897      0.897
REMARK INTER + INTRA:          -1.819
REMARK INTER:                  -1.819
REMARK INTRA:                   0.000
REMARK UNBOUND:                 0.000
REMARK  Name = CT1001562328
REMARK  0 active torsions:
REMARK  status: ('A' for Active; 'I' for Inactive)
REMARK                            x       y       z     vdW  Elec       q    Type
REMARK                         _______ _______ _______ _____ _____    ______ ____
ROOT
ATOM      1  C   UNL     1       6.412   1.360  -2.168  0.00  0.00    +0.000 C 
ATOM      2  O   UNL     1       5.447   2.070  -2.324  0.00  0.00    +0.000 OA
ATOM      3  O   UNL     1       7.378   0.651  -2.011  0.00  0.00    +0.000 OA
ENDROOT
TORSDOF 0
ENDMDL
