MODEL 1
REMARK VINA RESULT:    -1.695      0.000      0.000
REMARK INTER + INTRA:          -1.695
REMARK INTER:                  -1.695
REMARK INTRA:                   0.000
REMARK UNBOUND:                 0.000
REMARK  Name = CT1001562328
REMARK  0 active torsions:
REMARK  status: ('A' for Active; 'I' for Inactive)
REMARK                            x       y       z     vdW  Elec       q    Type
REMARK                         _______ _______ _______ _____ _____    ______ ____
ROOT
ATOM      1  C   UNL     1      -4.274   9.885   2.582  0.00  0.00    +0.000 C 
ATOM      2  O   UNL     1      -5.403   9.937   2.156  0.00  0.00    +0.000 OA
ATOM      3  O   UNL     1      -3.145   9.833   3.009  0.00  0.00    +0.000 OA
ENDROOT
TORSDOF 0
ENDMDL
MODEL 2
REMARK VINA RESULT:    -1.695      0.016      1.973
REMARK INTER + INTRA:          -1.695
REMARK INTER:                  -1.695
REMARK INTRA:                   0.000
REMARK UNBOUND:                 0.000
REMARK  Name = CT1001562328
REMARK  0 active torsions:
REMARK  status: ('A' for Active; 'I' for Inactive)
REMARK                            x       y       z     vdW  Elec       q    Type
REMARK                         _______ _______ _______ _____ _____    ______ ____
ROOT
ATOM      1  C   UNL     1      -4.274   9.871   2.576  0.00  0.00    +0.000 C 
ATOM      2  O   UNL     1      -3.143   9.817   2.996  0.00  0.00    +0.000 OA
ATOM      3  O   UNL     1      -5.406   9.928   2.156  0.00  0.00    +0.000 OA
ENDROOT
TORSDOF 0
ENDMDL
MODEL 3
REMARK VINA RESULT:    -1.625     16.804     17.072
REMARK INTER + INTRA:          -1.625
REMARK INTER:                  -1.625
REMARK INTRA:                   0.000
REMARK UNBOUND:                 0.000
REMARK  Name = CT1001562328
REMARK  0 active torsions:
REMARK  status: ('A' for Active; 'I' for Inactive)
REMARK                            x       y       z     vdW  Elec       q    Type
REMARK                         _______ _______ _______ _____ _____    ______ ____
ROOT
ATOM      1  C   UNL     1       6.249  -0.046  -6.477  0.00  0.00    +0.000 C 
ATOM      2  O   UNL     1       5.163   0.100  -6.986  0.00  0.00    +0.000 OA
ATOM      3  O   UNL     1       7.334  -0.194  -5.967  0.00  0.00    +0.000 OA
ENDROOT
TORSDOF 0
ENDMDL
MODEL 4
REMARK VINA RESULT:    -1.624     16.772     17.164
REMARK INTER + INTRA:          -1.624
REMARK INTER:                  -1.624
REMARK INTRA:                   0.000
REMARK UNBOUND:                 0.000
REMARK  Name = CT1001562328
REMARK  0 active torsions:
REMARK  status: ('A' for Active; 'I' for Inactive)
REMARK                            x       y       z     vdW  Elec       q    Type
REMARK                         _______ _______ _______ _____ _____    ______ ____
ROOT
ATOM      1  C   UNL     1       6.230  -0.032  -6.473  0.00  0.00    +0.000 C 
ATOM      2  O   UNL     1       7.327  -0.202  -5.997  0.00  0.00    +0.000 OA
ATOM      3  O   UNL     1       5.133   0.136  -6.950  0.00  0.00    +0.000 OA
ENDROOT
TORSDOF 0
ENDMDL
MODEL 5
REMARK VINA RESULT:    -1.605     16.384     16.459
REMARK INTER + INTRA:          -1.605
REMARK INTER:                  -1.605
REMARK INTRA:                   0.000
REMARK UNBOUND:                 0.000
REMARK  Name = CT1001562328
REMARK  0 active torsions:
REMARK  status: ('A' for Active; 'I' for Inactive)
REMARK                            x       y       z     vdW  Elec       q    Type
REMARK                         _______ _______ _______ _____ _____    ______ ____
ROOT
ATOM      1  C   UNL     1       8.946   0.538  -0.189  0.00  0.00    +0.000 C 
ATOM      2  O   UNL     1       8.364  -0.510  -0.338  0.00  0.00    +0.000 OA
ATOM      3  O   UNL     1       9.529   1.585  -0.041  0.00  0.00    +0.000 OA
ENDROOT
TORSDOF 0
ENDMDL
