MODEL 1
REMARK VINA RESULT:    -2.214      0.000      0.000
REMARK INTER + INTRA:          -2.214
REMARK INTER:                  -2.214
REMARK INTRA:                   0.000
REMARK UNBOUND:                 0.000
REMARK  Name = CT1001562328
REMARK  0 active torsions:
REMARK  status: ('A' for Active; 'I' for Inactive)
REMARK                            x       y       z     vdW  Elec       q    Type
REMARK                         _______ _______ _______ _____ _____    ______ ____
ROOT
ATOM      1  C   UNL     1      -9.351   5.091  -3.668  0.00  0.00    +0.000 C 
ATOM      2  O   UNL     1      -8.793   4.149  -3.155  0.00  0.00    +0.000 OA
ATOM      3  O   UNL     1      -9.908   6.033  -4.179  0.00  0.00    +0.000 OA
ENDROOT
TORSDOF 0
ENDMDL
MODEL 2
REMARK VINA RESULT:    -2.214      0.013      1.973
REMARK INTER + INTRA:          -2.214
REMARK INTER:                  -2.214
REMARK INTRA:                   0.000
REMARK UNBOUND:                 0.000
REMARK  Name = CT1001562328
REMARK  0 active torsions:
REMARK  status: ('A' for Active; 'I' for Inactive)
REMARK                            x       y       z     vdW  Elec       q    Type
REMARK                         _______ _______ _______ _____ _____    ______ ____
ROOT
ATOM      1  C   UNL     1      -9.347   5.092  -3.667  0.00  0.00    +0.000 C 
ATOM      2  O   UNL     1      -9.915   6.034  -4.167  0.00  0.00    +0.000 OA
ATOM      3  O   UNL     1      -8.781   4.149  -3.167  0.00  0.00    +0.000 OA
ENDROOT
TORSDOF 0
ENDMDL
MODEL 3
REMARK VINA RESULT:    -2.034      0.732      0.732
REMARK INTER + INTRA:          -2.034
REMARK INTER:                  -2.034
REMARK INTRA:                   0.000
REMARK UNBOUND:                 0.000
REMARK  Name = CT1001562328
REMARK  0 active torsions:
REMARK  status: ('A' for Active; 'I' for Inactive)
REMARK                            x       y       z     vdW  Elec       q    Type
REMARK                         _______ _______ _______ _____ _____    ______ ____
ROOT
ATOM      1  C   UNL     1      -8.992   4.551  -3.331  0.00  0.00    +0.000 C 
ATOM      2  O   UNL     1      -8.485   3.574  -2.833  0.00  0.00    +0.000 OA
ATOM      3  O   UNL     1      -9.500   5.528  -3.828  0.00  0.00    +0.000 OA
ENDROOT
TORSDOF 0
ENDMDL
MODEL 4
REMARK VINA RESULT:    -1.999     22.573     22.867
REMARK INTER + INTRA:          -1.999
REMARK INTER:                  -1.999
REMARK INTRA:                   0.000
REMARK UNBOUND:                 0.000
REMARK  Name = CT1001562328
REMARK  0 active torsions:
REMARK  status: ('A' for Active; 'I' for Inactive)
REMARK                            x       y       z     vdW  Elec       q    Type
REMARK                         _______ _______ _______ _____ _____    ______ ____
ROOT
ATOM      1  C   UNL     1       9.574   8.060   8.696  0.00  0.00    +0.000 C 
ATOM      2  O   UNL     1       9.625   9.204   9.081  0.00  0.00    +0.000 OA
ATOM      3  O   UNL     1       9.521   6.916   8.312  0.00  0.00    +0.000 OA
ENDROOT
TORSDOF 0
ENDMDL
MODEL 5
REMARK VINA RESULT:    -1.798     19.253     19.975
REMARK INTER + INTRA:          -1.798
REMARK INTER:                  -1.798
REMARK INTRA:                   0.000
REMARK UNBOUND:                 0.000
REMARK  Name = CT1001562328
REMARK  0 active torsions:
REMARK  status: ('A' for Active; 'I' for Inactive)
REMARK                            x       y       z     vdW  Elec       q    Type
REMARK                         _______ _______ _______ _____ _____    ______ ____
ROOT
ATOM      1  C   UNL     1       5.930  -1.148   7.426  0.00  0.00    +0.000 C 
ATOM      2  O   UNL     1       5.416  -0.775   6.398  0.00  0.00    +0.000 OA
ATOM      3  O   UNL     1       6.443  -1.521   8.454  0.00  0.00    +0.000 OA
ENDROOT
TORSDOF 0
ENDMDL
