REMARK  Name = CT1001562328
REMARK  0 active torsions:
REMARK  status: ('A' for Active; 'I' for Inactive)
REMARK                            x       y       z     vdW  Elec       q    Type
REMARK                         _______ _______ _______ _____ _____    ______ ____
ROOT
ATOM      1  C   UNL     1      -4.300  10.029   2.550  0.00  0.00    +0.000 C 
ATOM      2  O   UNL     1      -3.178   9.931   2.988  0.00  0.00    +0.000 OA
ATOM      3  O   UNL     1      -5.422  10.125   2.111  0.00  0.00    +0.000 OA
ENDROOT
TORSDOF 0
