REMARK  Name = CT1001562328
REMARK  0 active torsions:
REMARK  status: ('A' for Active; 'I' for Inactive)
REMARK                            x       y       z     vdW  Elec       q    Type
REMARK                         _______ _______ _______ _____ _____    ______ ____
ROOT
ATOM      1  C   UNL     1       7.400   1.867  -6.750  0.00  0.00    +0.000 C 
ATOM      2  O   UNL     1       8.448   1.503  -6.274  0.00  0.00    +0.000 OA
ATOM      3  O   UNL     1       6.352   2.233  -7.228  0.00  0.00    +0.000 OA
ENDROOT
TORSDOF 0
