REMARK  Name = CT1001562328
REMARK  0 active torsions:
REMARK  status: ('A' for Active; 'I' for Inactive)
REMARK                            x       y       z     vdW  Elec       q    Type
REMARK                         _______ _______ _______ _____ _____    ______ ____
ROOT
ATOM      1  C   UNL     1       3.785   9.961   5.031  0.00  0.00    +0.000 C 
ATOM      2  O   UNL     1       4.969  10.125   5.206  0.00  0.00    +0.000 OA
ATOM      3  O   UNL     1       2.601   9.798   4.857  0.00  0.00    +0.000 OA
ENDROOT
TORSDOF 0
