REMARK  Name = CT1001562328
REMARK  0 active torsions:
REMARK  status: ('A' for Active; 'I' for Inactive)
REMARK                            x       y       z     vdW  Elec       q    Type
REMARK                         _______ _______ _______ _____ _____    ______ ____
ROOT
ATOM      1  C   UNL     1      -3.375   3.248   5.246  0.00  0.00    +0.000 C 
ATOM      2  O   UNL     1      -2.624   2.337   4.988  0.00  0.00    +0.000 OA
ATOM      3  O   UNL     1      -4.125   4.159   5.506  0.00  0.00    +0.000 OA
ENDROOT
TORSDOF 0
