REMARK  Name = CT1001562328
REMARK  0 active torsions:
REMARK  status: ('A' for Active; 'I' for Inactive)
REMARK                            x       y       z     vdW  Elec       q    Type
REMARK                         _______ _______ _______ _____ _____    ______ ____
ROOT
ATOM      1  C   UNL     1       5.459   1.771  -1.125  0.00  0.00    +0.000 C 
ATOM      2  O   UNL     1       5.991   0.752  -1.498  0.00  0.00    +0.000 OA
ATOM      3  O   UNL     1       4.929   2.791  -0.751  0.00  0.00    +0.000 OA
ENDROOT
TORSDOF 0
