REMARK  Name = CT1001562328
REMARK  0 active torsions:
REMARK  status: ('A' for Active; 'I' for Inactive)
REMARK                            x       y       z     vdW  Elec       q    Type
REMARK                         _______ _______ _______ _____ _____    ______ ____
ROOT
ATOM      1  C   UNL     1      -3.373   3.251   5.246  0.00  0.00    +0.000 C 
ATOM      2  O   UNL     1      -2.623   2.338   4.995  0.00  0.00    +0.000 OA
ATOM      3  O   UNL     1      -4.123   4.165   5.496  0.00  0.00    +0.000 OA
ENDROOT
TORSDOF 0
