REMARK  Name = CT1001562328
REMARK  0 active torsions:
REMARK  status: ('A' for Active; 'I' for Inactive)
REMARK                            x       y       z     vdW  Elec       q    Type
REMARK                         _______ _______ _______ _____ _____    ______ ____
ROOT
ATOM      1  C   UNL     1      -7.596   7.496  -1.311  0.00  0.00    +0.000 C 
ATOM      2  O   UNL     1      -8.252   8.494  -1.496  0.00  0.00    +0.000 OA
ATOM      3  O   UNL     1      -6.941   6.499  -1.124  0.00  0.00    +0.000 OA
ENDROOT
TORSDOF 0
