REMARK  Name = CT1001562328
REMARK  0 active torsions:
REMARK  status: ('A' for Active; 'I' for Inactive)
REMARK                            x       y       z     vdW  Elec       q    Type
REMARK                         _______ _______ _______ _____ _____    ______ ____
ROOT
ATOM      1  C   UNL     1       6.002   1.155  -2.437  0.00  0.00    +0.000 C 
ATOM      2  O   UNL     1       5.695   2.308  -2.248  0.00  0.00    +0.000 OA
ATOM      3  O   UNL     1       6.311   0.002  -2.625  0.00  0.00    +0.000 OA
ENDROOT
TORSDOF 0
