REMARK  Name = CT1001562328
REMARK  0 active torsions:
REMARK  status: ('A' for Active; 'I' for Inactive)
REMARK                            x       y       z     vdW  Elec       q    Type
REMARK                         _______ _______ _______ _____ _____    ______ ____
ROOT
ATOM      1  C   UNL     1      -1.080   9.000  -5.606  0.00  0.00    +0.000 C 
ATOM      2  O   UNL     1      -0.752   8.625  -4.505  0.00  0.00    +0.000 OA
ATOM      3  O   UNL     1      -1.407   9.374  -6.707  0.00  0.00    +0.000 OA
ENDROOT
TORSDOF 0
