REMARK  Name = CT1001562328
REMARK  0 active torsions:
REMARK  status: ('A' for Active; 'I' for Inactive)
REMARK                            x       y       z     vdW  Elec       q    Type
REMARK                         _______ _______ _______ _____ _____    ______ ____
ROOT
ATOM      1  C   UNL     1      -7.087  -0.000  -7.850  0.00  0.00    +0.000 C 
ATOM      2  O   UNL     1      -6.181  -0.708  -8.220  0.00  0.00    +0.000 OA
ATOM      3  O   UNL     1      -7.995   0.706  -7.480  0.00  0.00    +0.000 OA
ENDROOT
TORSDOF 0
