REMARK  Name = CT1001562328
REMARK  0 active torsions:
REMARK  status: ('A' for Active; 'I' for Inactive)
REMARK                            x       y       z     vdW  Elec       q    Type
REMARK                         _______ _______ _______ _____ _____    ______ ____
ROOT
ATOM      1  C   UNL     1      -7.586   7.494  -1.312  0.00  0.00    +0.000 C 
ATOM      2  O   UNL     1      -8.253   8.484  -1.499  0.00  0.00    +0.000 OA
ATOM      3  O   UNL     1      -6.919   6.504  -1.126  0.00  0.00    +0.000 OA
ENDROOT
TORSDOF 0
