REMARK  Name = CT1001562328
REMARK  0 active torsions:
REMARK  status: ('A' for Active; 'I' for Inactive)
REMARK                            x       y       z     vdW  Elec       q    Type
REMARK                         _______ _______ _______ _____ _____    ______ ____
ROOT
ATOM      1  C   UNL     1      -9.376   5.126  -3.745  0.00  0.00    +0.000 C 
ATOM      2  O   UNL     1     -10.017   6.077  -4.126  0.00  0.00    +0.000 OA
ATOM      3  O   UNL     1      -8.735   4.176  -3.364  0.00  0.00    +0.000 OA
ENDROOT
TORSDOF 0
