REMARK  Name = CT1001562328
REMARK  0 active torsions:
REMARK  status: ('A' for Active; 'I' for Inactive)
REMARK                            x       y       z     vdW  Elec       q    Type
REMARK                         _______ _______ _______ _____ _____    ______ ____
ROOT
ATOM      1  C   UNL     1       2.626   3.374   1.120  0.00  0.00    +0.000 C 
ATOM      2  O   UNL     1       2.625   2.625   0.172  0.00  0.00    +0.000 OA
ATOM      3  O   UNL     1       2.627   4.123   2.067  0.00  0.00    +0.000 OA
ENDROOT
TORSDOF 0
