REMARK  Name = CT1001562328
REMARK  0 active torsions:
REMARK  status: ('A' for Active; 'I' for Inactive)
REMARK                            x       y       z     vdW  Elec       q    Type
REMARK                         _______ _______ _______ _____ _____    ______ ____
ROOT
ATOM      1  C   UNL     1      -0.771   8.996  -6.393  0.00  0.00    +0.000 C 
ATOM      2  O   UNL     1      -1.172   9.357  -5.312  0.00  0.00    +0.000 OA
ATOM      3  O   UNL     1      -0.369   8.635  -7.473  0.00  0.00    +0.000 OA
ENDROOT
TORSDOF 0
