REMARK  Name = CT1001562328
REMARK  0 active torsions:
REMARK  status: ('A' for Active; 'I' for Inactive)
REMARK                            x       y       z     vdW  Elec       q    Type
REMARK                         _______ _______ _______ _____ _____    ______ ____
ROOT
ATOM      1  C   UNL     1      -9.319   5.106  -3.751  0.00  0.00    +0.000 C 
ATOM      2  O   UNL     1      -9.991   6.037  -4.128  0.00  0.00    +0.000 OA
ATOM      3  O   UNL     1      -8.646   4.176  -3.374  0.00  0.00    +0.000 OA
ENDROOT
TORSDOF 0
