REMARK  Name = CT1001562328
REMARK  0 active torsions:
REMARK  status: ('A' for Active; 'I' for Inactive)
REMARK                            x       y       z     vdW  Elec       q    Type
REMARK                         _______ _______ _______ _____ _____    ______ ____
ROOT
ATOM      1  C   UNL     1       5.458   1.758  -1.124  0.00  0.00    +0.000 C 
ATOM      2  O   UNL     1       6.006   0.751  -1.505  0.00  0.00    +0.000 OA
ATOM      3  O   UNL     1       4.912   2.766  -0.742  0.00  0.00    +0.000 OA
ENDROOT
TORSDOF 0
