REMARK  Name = CT1001562328
REMARK  0 active torsions:
REMARK  status: ('A' for Active; 'I' for Inactive)
REMARK                            x       y       z     vdW  Elec       q    Type
REMARK                         _______ _______ _______ _____ _____    ______ ____
ROOT
ATOM      1  C   UNL     1      -3.374   3.254   5.250  0.00  0.00    +0.000 C 
ATOM      2  O   UNL     1      -4.123   4.167   5.508  0.00  0.00    +0.000 OA
ATOM      3  O   UNL     1      -2.626   2.341   4.993  0.00  0.00    +0.000 OA
ENDROOT
TORSDOF 0
