REMARK  Name = CT1001562328
REMARK  0 active torsions:
REMARK  status: ('A' for Active; 'I' for Inactive)
REMARK                            x       y       z     vdW  Elec       q    Type
REMARK                         _______ _______ _______ _____ _____    ______ ____
ROOT
ATOM      1  C   UNL     1      -7.055  -0.002  -7.828  0.00  0.00    +0.000 C 
ATOM      2  O   UNL     1      -7.967   0.712  -7.484  0.00  0.00    +0.000 OA
ATOM      3  O   UNL     1      -6.144  -0.717  -8.172  0.00  0.00    +0.000 OA
ENDROOT
TORSDOF 0
