REMARK  Name = CT1001562328
REMARK  0 active torsions:
REMARK  status: ('A' for Active; 'I' for Inactive)
REMARK                            x       y       z     vdW  Elec       q    Type
REMARK                         _______ _______ _______ _____ _____    ______ ____
ROOT
ATOM      1  C   UNL     1      -1.091   9.000  -5.600  0.00  0.00    +0.000 C 
ATOM      2  O   UNL     1      -0.751   8.626  -4.502  0.00  0.00    +0.000 OA
ATOM      3  O   UNL     1      -1.429   9.375  -6.697  0.00  0.00    +0.000 OA
ENDROOT
TORSDOF 0
