REMARK  Name = CT1001562328
REMARK  0 active torsions:
REMARK  status: ('A' for Active; 'I' for Inactive)
REMARK                            x       y       z     vdW  Elec       q    Type
REMARK                         _______ _______ _______ _____ _____    ______ ____
ROOT
ATOM      1  C   UNL     1      -4.232   9.931   2.626  0.00  0.00    +0.000 C 
ATOM      2  O   UNL     1      -5.368  10.111   2.254  0.00  0.00    +0.000 OA
ATOM      3  O   UNL     1      -3.097   9.752   2.999  0.00  0.00    +0.000 OA
ENDROOT
TORSDOF 0
