REMARK  Name = CT1001562328
REMARK  0 active torsions:
REMARK  status: ('A' for Active; 'I' for Inactive)
REMARK                            x       y       z     vdW  Elec       q    Type
REMARK                         _______ _______ _______ _____ _____    ______ ____
ROOT
ATOM      1  C   UNL     1      -0.014   1.204   0.009  0.00  0.00    +0.000 C 
ATOM      2  O   UNL     1       0.002  -0.004   0.002  0.00  0.00    +0.000 OA
ATOM      3  O   UNL     1      -0.031   2.412   0.015  0.00  0.00    +0.000 OA
ENDROOT
TORSDOF 0
