MODEL 1
REMARK VINA RESULT:    -1.773      0.000      0.000
REMARK INTER + INTRA:          -1.773
REMARK INTER:                  -1.773
REMARK INTRA:                   0.000
REMARK UNBOUND:                 0.000
REMARK  Name = CT1001562328
REMARK  0 active torsions:
REMARK  status: ('A' for Active; 'I' for Inactive)
REMARK                            x       y       z     vdW  Elec       q    Type
REMARK                         _______ _______ _______ _____ _____    ______ ____
ROOT
ATOM      1  C   UNL     1       8.133  -7.262   4.079  0.00  0.00    +0.000 C 
ATOM      2  O   UNL     1       7.462  -6.622   3.305  0.00  0.00    +0.000 OA
ATOM      3  O   UNL     1       8.804  -7.903   4.853  0.00  0.00    +0.000 OA
ENDROOT
TORSDOF 0
ENDMDL
MODEL 2
REMARK VINA RESULT:    -1.767      3.739      3.964
REMARK INTER + INTRA:          -1.767
REMARK INTER:                  -1.767
REMARK INTRA:                   0.000
REMARK UNBOUND:                 0.000
REMARK  Name = CT1001562328
REMARK  0 active torsions:
REMARK  status: ('A' for Active; 'I' for Inactive)
REMARK                            x       y       z     vdW  Elec       q    Type
REMARK                         _______ _______ _______ _____ _____    ______ ____
ROOT
ATOM      1  C   UNL     1       9.099  -5.983   0.534  0.00  0.00    +0.000 C 
ATOM      2  O   UNL     1       8.985  -4.810   0.268  0.00  0.00    +0.000 OA
ATOM      3  O   UNL     1       9.215  -7.156   0.798  0.00  0.00    +0.000 OA
ENDROOT
TORSDOF 0
ENDMDL
MODEL 3
REMARK VINA RESULT:    -1.762      3.646      4.260
REMARK INTER + INTRA:          -1.762
REMARK INTER:                  -1.762
REMARK INTRA:                   0.000
REMARK UNBOUND:                 0.000
REMARK  Name = CT1001562328
REMARK  0 active torsions:
REMARK  status: ('A' for Active; 'I' for Inactive)
REMARK                            x       y       z     vdW  Elec       q    Type
REMARK                         _______ _______ _______ _____ _____    ______ ____
ROOT
ATOM      1  C   UNL     1       9.111  -6.000   0.586  0.00  0.00    +0.000 C 
ATOM      2  O   UNL     1       9.236  -7.150   0.936  0.00  0.00    +0.000 OA
ATOM      3  O   UNL     1       8.986  -4.850   0.237  0.00  0.00    +0.000 OA
ENDROOT
TORSDOF 0
ENDMDL
MODEL 4
REMARK VINA RESULT:    -1.758      0.111      1.974
REMARK INTER + INTRA:          -1.758
REMARK INTER:                  -1.758
REMARK INTRA:                   0.000
REMARK UNBOUND:                 0.000
REMARK  Name = CT1001562328
REMARK  0 active torsions:
REMARK  status: ('A' for Active; 'I' for Inactive)
REMARK                            x       y       z     vdW  Elec       q    Type
REMARK                         _______ _______ _______ _____ _____    ______ ____
ROOT
ATOM      1  C   UNL     1       8.165  -7.343   4.102  0.00  0.00    +0.000 C 
ATOM      2  O   UNL     1       8.897  -7.936   4.858  0.00  0.00    +0.000 OA
ATOM      3  O   UNL     1       7.433  -6.751   3.344  0.00  0.00    +0.000 OA
ENDROOT
TORSDOF 0
ENDMDL
MODEL 5
REMARK VINA RESULT:    -1.722      2.935      3.548
REMARK INTER + INTRA:          -1.722
REMARK INTER:                  -1.722
REMARK INTRA:                   0.000
REMARK UNBOUND:                 0.000
REMARK  Name = CT1001562328
REMARK  0 active torsions:
REMARK  status: ('A' for Active; 'I' for Inactive)
REMARK                            x       y       z     vdW  Elec       q    Type
REMARK                         _______ _______ _______ _____ _____    ______ ____
ROOT
ATOM      1  C   UNL     1       9.754  -8.720   6.287  0.00  0.00    +0.000 C 
ATOM      2  O   UNL     1       9.442  -8.828   7.449  0.00  0.00    +0.000 OA
ATOM      3  O   UNL     1      10.065  -8.613   5.124  0.00  0.00    +0.000 OA
ENDROOT
TORSDOF 0
ENDMDL
