MODEL 1
REMARK VINA RESULT:    -1.991      0.000      0.000
REMARK INTER + INTRA:          -1.991
REMARK INTER:                  -1.991
REMARK INTRA:                   0.000
REMARK UNBOUND:                 0.000
REMARK  Name = CT1001562328
REMARK  0 active torsions:
REMARK  status: ('A' for Active; 'I' for Inactive)
REMARK                            x       y       z     vdW  Elec       q    Type
REMARK                         _______ _______ _______ _____ _____    ______ ____
ROOT
ATOM      1  C   UNL     1       2.644   2.210  -0.160  0.00  0.00    +0.000 C 
ATOM      2  O   UNL     1       3.302   1.865   0.792  0.00  0.00    +0.000 OA
ATOM      3  O   UNL     1       1.987   2.556  -1.114  0.00  0.00    +0.000 OA
ENDROOT
TORSDOF 0
ENDMDL
MODEL 2
REMARK VINA RESULT:    -1.989      0.068      1.973
REMARK INTER + INTRA:          -1.989
REMARK INTER:                  -1.989
REMARK INTRA:                   0.000
REMARK UNBOUND:                 0.000
REMARK  Name = CT1001562328
REMARK  0 active torsions:
REMARK  status: ('A' for Active; 'I' for Inactive)
REMARK                            x       y       z     vdW  Elec       q    Type
REMARK                         _______ _______ _______ _____ _____    ______ ____
ROOT
ATOM      1  C   UNL     1       2.685   2.240  -0.137  0.00  0.00    +0.000 C 
ATOM      2  O   UNL     1       2.009   2.622  -1.063  0.00  0.00    +0.000 OA
ATOM      3  O   UNL     1       3.360   1.857   0.789  0.00  0.00    +0.000 OA
ENDROOT
TORSDOF 0
ENDMDL
MODEL 3
REMARK VINA RESULT:    -1.853      2.424      3.269
REMARK INTER + INTRA:          -1.853
REMARK INTER:                  -1.853
REMARK INTRA:                   0.000
REMARK UNBOUND:                 0.000
REMARK  Name = CT1001562328
REMARK  0 active torsions:
REMARK  status: ('A' for Active; 'I' for Inactive)
REMARK                            x       y       z     vdW  Elec       q    Type
REMARK                         _______ _______ _______ _____ _____    ______ ____
ROOT
ATOM      1  C   UNL     1       1.869   4.204  -1.955  0.00  0.00    +0.000 C 
ATOM      2  O   UNL     1       1.896   5.363  -2.296  0.00  0.00    +0.000 OA
ATOM      3  O   UNL     1       1.843   3.045  -1.615  0.00  0.00    +0.000 OA
ENDROOT
TORSDOF 0
ENDMDL
MODEL 4
REMARK VINA RESULT:    -1.777     12.720     12.965
REMARK INTER + INTRA:          -1.777
REMARK INTER:                  -1.777
REMARK INTRA:                   0.000
REMARK UNBOUND:                 0.000
REMARK  Name = CT1001562328
REMARK  0 active torsions:
REMARK  status: ('A' for Active; 'I' for Inactive)
REMARK                            x       y       z     vdW  Elec       q    Type
REMARK                         _______ _______ _______ _____ _____    ______ ____
ROOT
ATOM      1  C   UNL     1      -5.622   6.377  -9.178  0.00  0.00    +0.000 C 
ATOM      2  O   UNL     1      -5.626   7.128  -8.232  0.00  0.00    +0.000 OA
ATOM      3  O   UNL     1      -5.617   5.625 -10.124  0.00  0.00    +0.000 OA
ENDROOT
TORSDOF 0
ENDMDL
MODEL 5
REMARK VINA RESULT:    -1.697      6.080      6.398
REMARK INTER + INTRA:          -1.697
REMARK INTER:                  -1.697
REMARK INTRA:                   0.000
REMARK UNBOUND:                 0.000
REMARK  Name = CT1001562328
REMARK  0 active torsions:
REMARK  status: ('A' for Active; 'I' for Inactive)
REMARK                            x       y       z     vdW  Elec       q    Type
REMARK                         _______ _______ _______ _____ _____    ______ ____
ROOT
ATOM      1  C   UNL     1       1.884   2.051   5.921  0.00  0.00    +0.000 C 
ATOM      2  O   UNL     1       0.804   1.765   5.462  0.00  0.00    +0.000 OA
ATOM      3  O   UNL     1       2.965   2.335   6.381  0.00  0.00    +0.000 OA
ENDROOT
TORSDOF 0
ENDMDL
