MODEL 1
REMARK VINA RESULT:    -2.046      0.000      0.000
REMARK INTER + INTRA:          -2.046
REMARK INTER:                  -2.046
REMARK INTRA:                   0.000
REMARK UNBOUND:                 0.000
REMARK  Name = CT1001562328
REMARK  0 active torsions:
REMARK  status: ('A' for Active; 'I' for Inactive)
REMARK                            x       y       z     vdW  Elec       q    Type
REMARK                         _______ _______ _______ _____ _____    ______ ____
ROOT
ATOM      1  C   UNL     1       9.363  -6.802  -4.367  0.00  0.00    +0.000 C 
ATOM      2  O   UNL     1       8.983  -6.092  -3.466  0.00  0.00    +0.000 OA
ATOM      3  O   UNL     1       9.742  -7.510  -5.269  0.00  0.00    +0.000 OA
ENDROOT
TORSDOF 0
ENDMDL
MODEL 2
REMARK VINA RESULT:    -2.044      0.044      1.973
REMARK INTER + INTRA:          -2.044
REMARK INTER:                  -2.044
REMARK INTRA:                   0.000
REMARK UNBOUND:                 0.000
REMARK  Name = CT1001562328
REMARK  0 active torsions:
REMARK  status: ('A' for Active; 'I' for Inactive)
REMARK                            x       y       z     vdW  Elec       q    Type
REMARK                         _______ _______ _______ _____ _____    ______ ____
ROOT
ATOM      1  C   UNL     1       9.384  -6.836  -4.371  0.00  0.00    +0.000 C 
ATOM      2  O   UNL     1       9.779  -7.537  -5.271  0.00  0.00    +0.000 OA
ATOM      3  O   UNL     1       8.989  -6.136  -3.469  0.00  0.00    +0.000 OA
ENDROOT
TORSDOF 0
ENDMDL
MODEL 3
REMARK VINA RESULT:    -1.947     17.708     17.803
REMARK INTER + INTRA:          -1.947
REMARK INTER:                  -1.947
REMARK INTRA:                   0.000
REMARK UNBOUND:                 0.000
REMARK  Name = CT1001562328
REMARK  0 active torsions:
REMARK  status: ('A' for Active; 'I' for Inactive)
REMARK                            x       y       z     vdW  Elec       q    Type
REMARK                         _______ _______ _______ _____ _____    ______ ____
ROOT
ATOM      1  C   UNL     1       7.952   6.952   6.800  0.00  0.00    +0.000 C 
ATOM      2  O   UNL     1       6.814   6.772   7.162  0.00  0.00    +0.000 OA
ATOM      3  O   UNL     1       9.090   7.132   6.437  0.00  0.00    +0.000 OA
ENDROOT
TORSDOF 0
ENDMDL
MODEL 4
REMARK VINA RESULT:    -1.875     21.125     21.460
REMARK INTER + INTRA:          -1.875
REMARK INTER:                  -1.875
REMARK INTRA:                   0.000
REMARK UNBOUND:                 0.000
REMARK  Name = CT1001562328
REMARK  0 active torsions:
REMARK  status: ('A' for Active; 'I' for Inactive)
REMARK                            x       y       z     vdW  Elec       q    Type
REMARK                         _______ _______ _______ _____ _____    ______ ____
ROOT
ATOM      1  C   UNL     1      -4.613   8.751   0.325  0.00  0.00    +0.000 C 
ATOM      2  O   UNL     1      -5.694   8.380   0.718  0.00  0.00    +0.000 OA
ATOM      3  O   UNL     1      -3.532   9.122  -0.067  0.00  0.00    +0.000 OA
ENDROOT
TORSDOF 0
ENDMDL
MODEL 5
REMARK VINA RESULT:    -1.846     10.011     10.025
REMARK INTER + INTRA:          -1.846
REMARK INTER:                  -1.846
REMARK INTRA:                   0.000
REMARK UNBOUND:                 0.000
REMARK  Name = CT1001562328
REMARK  0 active torsions:
REMARK  status: ('A' for Active; 'I' for Inactive)
REMARK                            x       y       z     vdW  Elec       q    Type
REMARK                         _______ _______ _______ _____ _____    ______ ____
ROOT
ATOM      1  C   UNL     1       0.092  -9.021  -7.245  0.00  0.00    +0.000 C 
ATOM      2  O   UNL     1      -0.606  -9.686  -6.517  0.00  0.00    +0.000 OA
ATOM      3  O   UNL     1       0.790  -8.355  -7.972  0.00  0.00    +0.000 OA
ENDROOT
TORSDOF 0
ENDMDL
