MODEL 1
REMARK VINA RESULT:    -1.805      0.000      0.000
REMARK INTER + INTRA:          -1.805
REMARK INTER:                  -1.805
REMARK INTRA:                   0.000
REMARK UNBOUND:                 0.000
REMARK  Name = CT1001562328
REMARK  0 active torsions:
REMARK  status: ('A' for Active; 'I' for Inactive)
REMARK                            x       y       z     vdW  Elec       q    Type
REMARK                         _______ _______ _______ _____ _____    ______ ____
ROOT
ATOM      1  C   UNL     1      -0.967  -7.728  -4.636  0.00  0.00    +0.000 C 
ATOM      2  O   UNL     1      -0.421  -7.245  -5.599  0.00  0.00    +0.000 OA
ATOM      3  O   UNL     1      -1.512  -8.211  -3.673  0.00  0.00    +0.000 OA
ENDROOT
TORSDOF 0
ENDMDL
MODEL 2
REMARK VINA RESULT:    -1.768     15.364     15.849
REMARK INTER + INTRA:          -1.768
REMARK INTER:                  -1.768
REMARK INTRA:                   0.000
REMARK UNBOUND:                 0.000
REMARK  Name = CT1001562328
REMARK  0 active torsions:
REMARK  status: ('A' for Active; 'I' for Inactive)
REMARK                            x       y       z     vdW  Elec       q    Type
REMARK                         _______ _______ _______ _____ _____    ______ ____
ROOT
ATOM      1  C   UNL     1      -2.987  -0.415   9.186  0.00  0.00    +0.000 C 
ATOM      2  O   UNL     1      -3.864   0.332   9.550  0.00  0.00    +0.000 OA
ATOM      3  O   UNL     1      -2.109  -1.161   8.823  0.00  0.00    +0.000 OA
ENDROOT
TORSDOF 0
ENDMDL
MODEL 3
REMARK VINA RESULT:    -1.764     15.374     15.819
REMARK INTER + INTRA:          -1.764
REMARK INTER:                  -1.764
REMARK INTRA:                   0.000
REMARK UNBOUND:                 0.000
REMARK  Name = CT1001562328
REMARK  0 active torsions:
REMARK  status: ('A' for Active; 'I' for Inactive)
REMARK                            x       y       z     vdW  Elec       q    Type
REMARK                         _______ _______ _______ _____ _____    ______ ____
ROOT
ATOM      1  C   UNL     1      -2.983  -0.403   9.191  0.00  0.00    +0.000 C 
ATOM      2  O   UNL     1      -2.097  -1.141   8.831  0.00  0.00    +0.000 OA
ATOM      3  O   UNL     1      -3.869   0.336   9.550  0.00  0.00    +0.000 OA
ENDROOT
TORSDOF 0
ENDMDL
MODEL 4
REMARK VINA RESULT:    -1.655     12.171     12.382
REMARK INTER + INTRA:          -1.655
REMARK INTER:                  -1.655
REMARK INTRA:                   0.000
REMARK UNBOUND:                 0.000
REMARK  Name = CT1001562328
REMARK  0 active torsions:
REMARK  status: ('A' for Active; 'I' for Inactive)
REMARK                            x       y       z     vdW  Elec       q    Type
REMARK                         _______ _______ _______ _____ _____    ______ ____
ROOT
ATOM      1  C   UNL     1       4.641  -3.953   5.613  0.00  0.00    +0.000 C 
ATOM      2  O   UNL     1       3.861  -3.156   6.078  0.00  0.00    +0.000 OA
ATOM      3  O   UNL     1       5.420  -4.750   5.147  0.00  0.00    +0.000 OA
ENDROOT
TORSDOF 0
ENDMDL
MODEL 5
REMARK VINA RESULT:    -1.654     12.096     12.304
REMARK INTER + INTRA:          -1.654
REMARK INTER:                  -1.654
REMARK INTRA:                   0.000
REMARK UNBOUND:                 0.000
REMARK  Name = CT1001562328
REMARK  0 active torsions:
REMARK  status: ('A' for Active; 'I' for Inactive)
REMARK                            x       y       z     vdW  Elec       q    Type
REMARK                         _______ _______ _______ _____ _____    ______ ____
ROOT
ATOM      1  C   UNL     1       4.599  -3.958   5.605  0.00  0.00    +0.000 C 
ATOM      2  O   UNL     1       5.313  -4.797   5.108  0.00  0.00    +0.000 OA
ATOM      3  O   UNL     1       3.886  -3.119   6.102  0.00  0.00    +0.000 OA
ENDROOT
TORSDOF 0
ENDMDL
