MODEL 1
REMARK VINA RESULT:    -1.800      0.000      0.000
REMARK INTER + INTRA:          -1.800
REMARK INTER:                  -1.800
REMARK INTRA:                   0.000
REMARK UNBOUND:                 0.000
REMARK  Name = CT1001562328
REMARK  0 active torsions:
REMARK  status: ('A' for Active; 'I' for Inactive)
REMARK                            x       y       z     vdW  Elec       q    Type
REMARK                         _______ _______ _______ _____ _____    ______ ____
ROOT
ATOM      1  C   UNL     1      -0.917  -7.736  -4.667  0.00  0.00    +0.000 C 
ATOM      2  O   UNL     1      -0.341  -7.265  -5.618  0.00  0.00    +0.000 OA
ATOM      3  O   UNL     1      -1.495  -8.207  -3.717  0.00  0.00    +0.000 OA
ENDROOT
TORSDOF 0
ENDMDL
MODEL 2
REMARK VINA RESULT:    -1.757     15.417     15.858
REMARK INTER + INTRA:          -1.757
REMARK INTER:                  -1.757
REMARK INTRA:                   0.000
REMARK UNBOUND:                 0.000
REMARK  Name = CT1001562328
REMARK  0 active torsions:
REMARK  status: ('A' for Active; 'I' for Inactive)
REMARK                            x       y       z     vdW  Elec       q    Type
REMARK                         _______ _______ _______ _____ _____    ______ ____
ROOT
ATOM      1  C   UNL     1      -2.976  -0.373   9.182  0.00  0.00    +0.000 C 
ATOM      2  O   UNL     1      -2.070  -1.078   8.806  0.00  0.00    +0.000 OA
ATOM      3  O   UNL     1      -3.881   0.334   9.557  0.00  0.00    +0.000 OA
ENDROOT
TORSDOF 0
ENDMDL
MODEL 3
REMARK VINA RESULT:    -1.738     15.414     15.888
REMARK INTER + INTRA:          -1.738
REMARK INTER:                  -1.738
REMARK INTRA:                   0.000
REMARK UNBOUND:                 0.000
REMARK  Name = CT1001562328
REMARK  0 active torsions:
REMARK  status: ('A' for Active; 'I' for Inactive)
REMARK                            x       y       z     vdW  Elec       q    Type
REMARK                         _______ _______ _______ _____ _____    ______ ____
ROOT
ATOM      1  C   UNL     1      -2.930  -0.303   9.144  0.00  0.00    +0.000 C 
ATOM      2  O   UNL     1      -3.715   0.560   9.456  0.00  0.00    +0.000 OA
ATOM      3  O   UNL     1      -2.145  -1.166   8.830  0.00  0.00    +0.000 OA
ENDROOT
TORSDOF 0
ENDMDL
MODEL 4
REMARK VINA RESULT:    -1.679     15.787     16.100
REMARK INTER + INTRA:          -1.679
REMARK INTER:                  -1.679
REMARK INTRA:                   0.000
REMARK UNBOUND:                 0.000
REMARK  Name = CT1001562328
REMARK  0 active torsions:
REMARK  status: ('A' for Active; 'I' for Inactive)
REMARK                            x       y       z     vdW  Elec       q    Type
REMARK                         _______ _______ _______ _____ _____    ______ ____
ROOT
ATOM      1  C   UNL     1      -3.227  -0.002   9.223  0.00  0.00    +0.000 C 
ATOM      2  O   UNL     1      -3.276   1.202   9.129  0.00  0.00    +0.000 OA
ATOM      3  O   UNL     1      -3.177  -1.205   9.317  0.00  0.00    +0.000 OA
ENDROOT
TORSDOF 0
ENDMDL
MODEL 5
REMARK VINA RESULT:    -1.657     12.197     12.353
REMARK INTER + INTRA:          -1.657
REMARK INTER:                  -1.657
REMARK INTRA:                   0.000
REMARK UNBOUND:                 0.000
REMARK  Name = CT1001562328
REMARK  0 active torsions:
REMARK  status: ('A' for Active; 'I' for Inactive)
REMARK                            x       y       z     vdW  Elec       q    Type
REMARK                         _______ _______ _______ _____ _____    ______ ____
ROOT
ATOM      1  C   UNL     1       4.621  -3.892   5.621  0.00  0.00    +0.000 C 
ATOM      2  O   UNL     1       5.400  -4.702   5.177  0.00  0.00    +0.000 OA
ATOM      3  O   UNL     1       3.841  -3.083   6.065  0.00  0.00    +0.000 OA
ENDROOT
TORSDOF 0
ENDMDL
