MODEL 1
REMARK VINA RESULT:    -1.809      0.000      0.000
REMARK INTER + INTRA:          -1.809
REMARK INTER:                  -1.809
REMARK INTRA:                   0.000
REMARK UNBOUND:                 0.000
REMARK  Name = CT1001562328
REMARK  0 active torsions:
REMARK  status: ('A' for Active; 'I' for Inactive)
REMARK                            x       y       z     vdW  Elec       q    Type
REMARK                         _______ _______ _______ _____ _____    ______ ____
ROOT
ATOM      1  C   UNL     1      -0.958  -7.763  -4.595  0.00  0.00    +0.000 C 
ATOM      2  O   UNL     1      -0.435  -7.270  -5.566  0.00  0.00    +0.000 OA
ATOM      3  O   UNL     1      -1.480  -8.256  -3.623  0.00  0.00    +0.000 OA
ENDROOT
TORSDOF 0
ENDMDL
MODEL 2
REMARK VINA RESULT:    -1.800      0.122      1.975
REMARK INTER + INTRA:          -1.800
REMARK INTER:                  -1.800
REMARK INTRA:                   0.000
REMARK UNBOUND:                 0.000
REMARK  Name = CT1001562328
REMARK  0 active torsions:
REMARK  status: ('A' for Active; 'I' for Inactive)
REMARK                            x       y       z     vdW  Elec       q    Type
REMARK                         _______ _______ _______ _____ _____    ______ ____
ROOT
ATOM      1  C   UNL     1      -0.907  -7.720  -4.682  0.00  0.00    +0.000 C 
ATOM      2  O   UNL     1      -1.483  -8.217  -3.744  0.00  0.00    +0.000 OA
ATOM      3  O   UNL     1      -0.329  -7.224  -5.620  0.00  0.00    +0.000 OA
ENDROOT
TORSDOF 0
ENDMDL
MODEL 3
REMARK VINA RESULT:    -1.765     15.348     15.829
REMARK INTER + INTRA:          -1.765
REMARK INTER:                  -1.765
REMARK INTRA:                   0.000
REMARK UNBOUND:                 0.000
REMARK  Name = CT1001562328
REMARK  0 active torsions:
REMARK  status: ('A' for Active; 'I' for Inactive)
REMARK                            x       y       z     vdW  Elec       q    Type
REMARK                         _______ _______ _______ _____ _____    ______ ____
ROOT
ATOM      1  C   UNL     1      -2.992  -0.420   9.189  0.00  0.00    +0.000 C 
ATOM      2  O   UNL     1      -3.869   0.330   9.547  0.00  0.00    +0.000 OA
ATOM      3  O   UNL     1      -2.115  -1.168   8.830  0.00  0.00    +0.000 OA
ENDROOT
TORSDOF 0
ENDMDL
MODEL 4
REMARK VINA RESULT:    -1.763     15.353     15.798
REMARK INTER + INTRA:          -1.763
REMARK INTER:                  -1.763
REMARK INTRA:                   0.000
REMARK UNBOUND:                 0.000
REMARK  Name = CT1001562328
REMARK  0 active torsions:
REMARK  status: ('A' for Active; 'I' for Inactive)
REMARK                            x       y       z     vdW  Elec       q    Type
REMARK                         _______ _______ _______ _____ _____    ______ ____
ROOT
ATOM      1  C   UNL     1      -2.989  -0.403   9.187  0.00  0.00    +0.000 C 
ATOM      2  O   UNL     1      -2.107  -1.146   8.828  0.00  0.00    +0.000 OA
ATOM      3  O   UNL     1      -3.873   0.340   9.544  0.00  0.00    +0.000 OA
ENDROOT
TORSDOF 0
ENDMDL
MODEL 5
REMARK VINA RESULT:    -1.654     12.223     12.349
REMARK INTER + INTRA:          -1.654
REMARK INTER:                  -1.654
REMARK INTRA:                   0.000
REMARK UNBOUND:                 0.000
REMARK  Name = CT1001562328
REMARK  0 active torsions:
REMARK  status: ('A' for Active; 'I' for Inactive)
REMARK                            x       y       z     vdW  Elec       q    Type
REMARK                         _______ _______ _______ _____ _____    ______ ____
ROOT
ATOM      1  C   UNL     1       4.640  -3.854   5.632  0.00  0.00    +0.000 C 
ATOM      2  O   UNL     1       5.470  -4.616   5.195  0.00  0.00    +0.000 OA
ATOM      3  O   UNL     1       3.809  -3.093   6.069  0.00  0.00    +0.000 OA
ENDROOT
TORSDOF 0
ENDMDL
