MODEL 1
REMARK VINA RESULT:    -1.764      0.000      0.000
REMARK INTER + INTRA:          -1.764
REMARK INTER:                  -1.764
REMARK INTRA:                   0.000
REMARK UNBOUND:                 0.000
REMARK  Name = CT1001562328
REMARK  0 active torsions:
REMARK  status: ('A' for Active; 'I' for Inactive)
REMARK                            x       y       z     vdW  Elec       q    Type
REMARK                         _______ _______ _______ _____ _____    ______ ____
ROOT
ATOM      1  C   UNL     1       7.831  -0.702  -0.270  0.00  0.00    +0.000 C 
ATOM      2  O   UNL     1       8.102   0.435   0.034  0.00  0.00    +0.000 OA
ATOM      3  O   UNL     1       7.560  -1.840  -0.572  0.00  0.00    +0.000 OA
ENDROOT
TORSDOF 0
ENDMDL
MODEL 2
REMARK VINA RESULT:    -1.764      0.001      1.973
REMARK INTER + INTRA:          -1.764
REMARK INTER:                  -1.764
REMARK INTRA:                   0.000
REMARK UNBOUND:                 0.000
REMARK  Name = CT1001562328
REMARK  0 active torsions:
REMARK  status: ('A' for Active; 'I' for Inactive)
REMARK                            x       y       z     vdW  Elec       q    Type
REMARK                         _______ _______ _______ _____ _____    ______ ____
ROOT
ATOM      1  C   UNL     1       7.830  -0.703  -0.270  0.00  0.00    +0.000 C 
ATOM      2  O   UNL     1       7.560  -1.841  -0.572  0.00  0.00    +0.000 OA
ATOM      3  O   UNL     1       8.100   0.435   0.034  0.00  0.00    +0.000 OA
ENDROOT
TORSDOF 0
ENDMDL
MODEL 3
REMARK VINA RESULT:    -1.699      1.164      1.164
REMARK INTER + INTRA:          -1.699
REMARK INTER:                  -1.699
REMARK INTRA:                   0.000
REMARK UNBOUND:                 0.000
REMARK  Name = CT1001562328
REMARK  0 active torsions:
REMARK  status: ('A' for Active; 'I' for Inactive)
REMARK                            x       y       z     vdW  Elec       q    Type
REMARK                         _______ _______ _______ _____ _____    ______ ____
ROOT
ATOM      1  C   UNL     1       8.228  -1.162   0.206  0.00  0.00    +0.000 C 
ATOM      2  O   UNL     1       7.774  -0.146  -0.265  0.00  0.00    +0.000 OA
ATOM      3  O   UNL     1       8.681  -2.178   0.678  0.00  0.00    +0.000 OA
ENDROOT
TORSDOF 0
ENDMDL
MODEL 4
REMARK VINA RESULT:    -1.686      1.736      1.921
REMARK INTER + INTRA:          -1.686
REMARK INTER:                  -1.686
REMARK INTRA:                   0.000
REMARK UNBOUND:                 0.000
REMARK  Name = CT1001562328
REMARK  0 active torsions:
REMARK  status: ('A' for Active; 'I' for Inactive)
REMARK                            x       y       z     vdW  Elec       q    Type
REMARK                         _______ _______ _______ _____ _____    ______ ____
ROOT
ATOM      1  C   UNL     1       8.520  -1.842   0.431  0.00  0.00    +0.000 C 
ATOM      2  O   UNL     1       9.322  -1.929   1.330  0.00  0.00    +0.000 OA
ATOM      3  O   UNL     1       7.719  -1.756  -0.469  0.00  0.00    +0.000 OA
ENDROOT
TORSDOF 0
ENDMDL
MODEL 5
REMARK VINA RESULT:    -1.680      7.476      7.921
REMARK INTER + INTRA:          -1.680
REMARK INTER:                  -1.680
REMARK INTRA:                   0.000
REMARK UNBOUND:                 0.000
REMARK  Name = CT1001562328
REMARK  0 active torsions:
REMARK  status: ('A' for Active; 'I' for Inactive)
REMARK                            x       y       z     vdW  Elec       q    Type
REMARK                         _______ _______ _______ _____ _____    ______ ____
ROOT
ATOM      1  C   UNL     1       2.405   4.838  -0.600  0.00  0.00    +0.000 C 
ATOM      2  O   UNL     1       3.105   4.559  -1.544  0.00  0.00    +0.000 OA
ATOM      3  O   UNL     1       1.705   5.118   0.344  0.00  0.00    +0.000 OA
ENDROOT
TORSDOF 0
ENDMDL
