MODEL 1
REMARK VINA RESULT:    -1.914      0.000      0.000
REMARK INTER + INTRA:          -1.914
REMARK INTER:                  -1.914
REMARK INTRA:                   0.000
REMARK UNBOUND:                 0.000
REMARK  Name = CT1001562328
REMARK  0 active torsions:
REMARK  status: ('A' for Active; 'I' for Inactive)
REMARK                            x       y       z     vdW  Elec       q    Type
REMARK                         _______ _______ _______ _____ _____    ______ ____
ROOT
ATOM      1  C   UNL     1       5.366  -2.235   4.358  0.00  0.00    +0.000 C 
ATOM      2  O   UNL     1       4.597  -2.927   3.734  0.00  0.00    +0.000 OA
ATOM      3  O   UNL     1       6.135  -1.541   4.980  0.00  0.00    +0.000 OA
ENDROOT
TORSDOF 0
ENDMDL
MODEL 2
REMARK VINA RESULT:    -1.910      0.032      1.973
REMARK INTER + INTRA:          -1.910
REMARK INTER:                  -1.910
REMARK INTRA:                   0.000
REMARK UNBOUND:                 0.000
REMARK  Name = CT1001562328
REMARK  0 active torsions:
REMARK  status: ('A' for Active; 'I' for Inactive)
REMARK                            x       y       z     vdW  Elec       q    Type
REMARK                         _______ _______ _______ _____ _____    ______ ____
ROOT
ATOM      1  C   UNL     1       5.379  -2.248   4.348  0.00  0.00    +0.000 C 
ATOM      2  O   UNL     1       6.171  -1.572   4.963  0.00  0.00    +0.000 OA
ATOM      3  O   UNL     1       4.588  -2.924   3.735  0.00  0.00    +0.000 OA
ENDROOT
TORSDOF 0
ENDMDL
MODEL 3
REMARK VINA RESULT:    -1.875     16.194     16.316
REMARK INTER + INTRA:          -1.875
REMARK INTER:                  -1.875
REMARK INTRA:                   0.000
REMARK UNBOUND:                 0.000
REMARK  Name = CT1001562328
REMARK  0 active torsions:
REMARK  status: ('A' for Active; 'I' for Inactive)
REMARK                            x       y       z     vdW  Elec       q    Type
REMARK                         _______ _______ _______ _____ _____    ______ ____
ROOT
ATOM      1  C   UNL     1       1.804   7.575  -8.147  0.00  0.00    +0.000 C 
ATOM      2  O   UNL     1       0.626   7.839  -8.196  0.00  0.00    +0.000 OA
ATOM      3  O   UNL     1       2.982   7.313  -8.097  0.00  0.00    +0.000 OA
ENDROOT
TORSDOF 0
ENDMDL
MODEL 4
REMARK VINA RESULT:    -1.826     16.153     16.347
REMARK INTER + INTRA:          -1.826
REMARK INTER:                  -1.826
REMARK INTRA:                   0.000
REMARK UNBOUND:                 0.000
REMARK  Name = CT1001562328
REMARK  0 active torsions:
REMARK  status: ('A' for Active; 'I' for Inactive)
REMARK                            x       y       z     vdW  Elec       q    Type
REMARK                         _______ _______ _______ _____ _____    ______ ____
ROOT
ATOM      1  C   UNL     1       1.724   7.526  -8.113  0.00  0.00    +0.000 C 
ATOM      2  O   UNL     1       2.928   7.456  -8.057  0.00  0.00    +0.000 OA
ATOM      3  O   UNL     1       0.519   7.597  -8.170  0.00  0.00    +0.000 OA
ENDROOT
TORSDOF 0
ENDMDL
MODEL 5
REMARK VINA RESULT:    -1.808      1.408      1.658
REMARK INTER + INTRA:          -1.808
REMARK INTER:                  -1.808
REMARK INTRA:                   0.000
REMARK UNBOUND:                 0.000
REMARK  Name = CT1001562328
REMARK  0 active torsions:
REMARK  status: ('A' for Active; 'I' for Inactive)
REMARK                            x       y       z     vdW  Elec       q    Type
REMARK                         _______ _______ _______ _____ _____    ______ ____
ROOT
ATOM      1  C   UNL     1       5.601  -2.318   5.331  0.00  0.00    +0.000 C 
ATOM      2  O   UNL     1       5.873  -1.867   4.243  0.00  0.00    +0.000 OA
ATOM      3  O   UNL     1       5.328  -2.768   6.418  0.00  0.00    +0.000 OA
ENDROOT
TORSDOF 0
ENDMDL
