MODEL 1
REMARK VINA RESULT:    -1.846      0.000      0.000
REMARK INTER + INTRA:          -1.846
REMARK INTER:                  -1.846
REMARK INTRA:                   0.000
REMARK UNBOUND:                 0.000
REMARK  Name = CT1001562328
REMARK  0 active torsions:
REMARK  status: ('A' for Active; 'I' for Inactive)
REMARK                            x       y       z     vdW  Elec       q    Type
REMARK                         _______ _______ _______ _____ _____    ______ ____
ROOT
ATOM      1  C   UNL     1       3.167  -4.189   9.718  0.00  0.00    +0.000 C 
ATOM      2  O   UNL     1       2.904  -3.082   9.313  0.00  0.00    +0.000 OA
ATOM      3  O   UNL     1       3.430  -5.296  10.125  0.00  0.00    +0.000 OA
ENDROOT
TORSDOF 0
ENDMDL
MODEL 2
REMARK VINA RESULT:    -1.843      0.044      1.973
REMARK INTER + INTRA:          -1.843
REMARK INTER:                  -1.843
REMARK INTRA:                   0.000
REMARK UNBOUND:                 0.000
REMARK  Name = CT1001562328
REMARK  0 active torsions:
REMARK  status: ('A' for Active; 'I' for Inactive)
REMARK                            x       y       z     vdW  Elec       q    Type
REMARK                         _______ _______ _______ _____ _____    ______ ____
ROOT
ATOM      1  C   UNL     1       3.146  -4.208   9.709  0.00  0.00    +0.000 C 
ATOM      2  O   UNL     1       3.446  -5.302  10.123  0.00  0.00    +0.000 OA
ATOM      3  O   UNL     1       2.846  -3.113   9.295  0.00  0.00    +0.000 OA
ENDROOT
TORSDOF 0
ENDMDL
MODEL 3
REMARK VINA RESULT:    -1.837      9.948     10.409
REMARK INTER + INTRA:          -1.837
REMARK INTER:                  -1.837
REMARK INTRA:                   0.000
REMARK UNBOUND:                 0.000
REMARK  Name = CT1001562328
REMARK  0 active torsions:
REMARK  status: ('A' for Active; 'I' for Inactive)
REMARK                            x       y       z     vdW  Elec       q    Type
REMARK                         _______ _______ _______ _____ _____    ______ ____
ROOT
ATOM      1  C   UNL     1       1.754   6.088   9.174  0.00  0.00    +0.000 C 
ATOM      2  O   UNL     1       2.075   6.883   8.322  0.00  0.00    +0.000 OA
ATOM      3  O   UNL     1       1.433   5.294  10.026  0.00  0.00    +0.000 OA
ENDROOT
TORSDOF 0
ENDMDL
MODEL 4
REMARK VINA RESULT:    -1.821     10.055     10.674
REMARK INTER + INTRA:          -1.821
REMARK INTER:                  -1.821
REMARK INTRA:                   0.000
REMARK UNBOUND:                 0.000
REMARK  Name = CT1001562328
REMARK  0 active torsions:
REMARK  status: ('A' for Active; 'I' for Inactive)
REMARK                            x       y       z     vdW  Elec       q    Type
REMARK                         _______ _______ _______ _____ _____    ______ ____
ROOT
ATOM      1  C   UNL     1       1.847   6.218   9.049  0.00  0.00    +0.000 C 
ATOM      2  O   UNL     1       1.432   5.399   9.833  0.00  0.00    +0.000 OA
ATOM      3  O   UNL     1       2.262   7.037   8.263  0.00  0.00    +0.000 OA
ENDROOT
TORSDOF 0
ENDMDL
MODEL 5
REMARK VINA RESULT:    -1.756     18.780     18.936
REMARK INTER + INTRA:          -1.756
REMARK INTER:                  -1.756
REMARK INTRA:                   0.000
REMARK UNBOUND:                 0.000
REMARK  Name = CT1001562328
REMARK  0 active torsions:
REMARK  status: ('A' for Active; 'I' for Inactive)
REMARK                            x       y       z     vdW  Elec       q    Type
REMARK                         _______ _______ _______ _____ _____    ______ ____
ROOT
ATOM      1  C   UNL     1      -7.205   4.633  -3.418  0.00  0.00    +0.000 C 
ATOM      2  O   UNL     1      -6.524   5.581  -3.730  0.00  0.00    +0.000 OA
ATOM      3  O   UNL     1      -7.886   3.686  -3.105  0.00  0.00    +0.000 OA
ENDROOT
TORSDOF 0
ENDMDL
