MODEL 1
REMARK VINA RESULT:    -1.769      0.000      0.000
REMARK INTER + INTRA:          -1.769
REMARK INTER:                  -1.769
REMARK INTRA:                   0.000
REMARK UNBOUND:                 0.000
REMARK  Name = CT1001562328
REMARK  0 active torsions:
REMARK  status: ('A' for Active; 'I' for Inactive)
REMARK                            x       y       z     vdW  Elec       q    Type
REMARK                         _______ _______ _______ _____ _____    ______ ____
ROOT
ATOM      1  C   UNL     1       9.132  -5.990   0.550  0.00  0.00    +0.000 C 
ATOM      2  O   UNL     1       9.310  -7.145   0.858  0.00  0.00    +0.000 OA
ATOM      3  O   UNL     1       8.953  -4.836   0.240  0.00  0.00    +0.000 OA
ENDROOT
TORSDOF 0
ENDMDL
MODEL 2
REMARK VINA RESULT:    -1.764      3.737      3.972
REMARK INTER + INTRA:          -1.764
REMARK INTER:                  -1.764
REMARK INTRA:                   0.000
REMARK UNBOUND:                 0.000
REMARK  Name = CT1001562328
REMARK  0 active torsions:
REMARK  status: ('A' for Active; 'I' for Inactive)
REMARK                            x       y       z     vdW  Elec       q    Type
REMARK                         _______ _______ _______ _____ _____    ______ ____
ROOT
ATOM      1  C   UNL     1       8.151  -7.293   4.098  0.00  0.00    +0.000 C 
ATOM      2  O   UNL     1       8.870  -7.907   4.850  0.00  0.00    +0.000 OA
ATOM      3  O   UNL     1       7.432  -6.677   3.347  0.00  0.00    +0.000 OA
ENDROOT
TORSDOF 0
ENDMDL
MODEL 3
REMARK VINA RESULT:    -1.759      3.703      4.286
REMARK INTER + INTRA:          -1.759
REMARK INTER:                  -1.759
REMARK INTRA:                   0.000
REMARK UNBOUND:                 0.000
REMARK  Name = CT1001562328
REMARK  0 active torsions:
REMARK  status: ('A' for Active; 'I' for Inactive)
REMARK                            x       y       z     vdW  Elec       q    Type
REMARK                         _______ _______ _______ _____ _____    ______ ____
ROOT
ATOM      1  C   UNL     1       8.095  -7.227   4.051  0.00  0.00    +0.000 C 
ATOM      2  O   UNL     1       7.543  -6.513   3.248  0.00  0.00    +0.000 OA
ATOM      3  O   UNL     1       8.649  -7.940   4.853  0.00  0.00    +0.000 OA
ENDROOT
TORSDOF 0
ENDMDL
MODEL 4
REMARK VINA RESULT:    -1.732      5.967      6.549
REMARK INTER + INTRA:          -1.732
REMARK INTER:                  -1.732
REMARK INTRA:                   0.000
REMARK UNBOUND:                 0.000
REMARK  Name = CT1001562328
REMARK  0 active torsions:
REMARK  status: ('A' for Active; 'I' for Inactive)
REMARK                            x       y       z     vdW  Elec       q    Type
REMARK                         _______ _______ _______ _____ _____    ______ ____
ROOT
ATOM      1  C   UNL     1       9.704  -8.696   6.264  0.00  0.00    +0.000 C 
ATOM      2  O   UNL     1       9.975  -8.556   5.095  0.00  0.00    +0.000 OA
ATOM      3  O   UNL     1       9.433  -8.836   7.433  0.00  0.00    +0.000 OA
ENDROOT
TORSDOF 0
ENDMDL
MODEL 5
REMARK VINA RESULT:    -1.706      0.287      1.982
REMARK INTER + INTRA:          -1.706
REMARK INTER:                  -1.706
REMARK INTRA:                   0.000
REMARK UNBOUND:                 0.000
REMARK  Name = CT1001562328
REMARK  0 active torsions:
REMARK  status: ('A' for Active; 'I' for Inactive)
REMARK                            x       y       z     vdW  Elec       q    Type
REMARK                         _______ _______ _______ _____ _____    ______ ____
ROOT
ATOM      1  C   UNL     1       9.000  -6.023   0.750  0.00  0.00    +0.000 C 
ATOM      2  O   UNL     1       8.999  -4.875   0.375  0.00  0.00    +0.000 OA
ATOM      3  O   UNL     1       9.002  -7.172   1.123  0.00  0.00    +0.000 OA
ENDROOT
TORSDOF 0
ENDMDL
