MODEL 1
REMARK VINA RESULT:    -1.914      0.000      0.000
REMARK INTER + INTRA:          -1.914
REMARK INTER:                  -1.914
REMARK INTRA:                   0.000
REMARK UNBOUND:                 0.000
REMARK  Name = CT1001562328
REMARK  0 active torsions:
REMARK  status: ('A' for Active; 'I' for Inactive)
REMARK                            x       y       z     vdW  Elec       q    Type
REMARK                         _______ _______ _______ _____ _____    ______ ____
ROOT
ATOM      1  C   UNL     1       5.362  -2.251   4.362  0.00  0.00    +0.000 C 
ATOM      2  O   UNL     1       4.601  -2.920   3.703  0.00  0.00    +0.000 OA
ATOM      3  O   UNL     1       6.121  -1.581   5.021  0.00  0.00    +0.000 OA
ENDROOT
TORSDOF 0
ENDMDL
MODEL 2
REMARK VINA RESULT:    -1.913      0.040      1.973
REMARK INTER + INTRA:          -1.913
REMARK INTER:                  -1.913
REMARK INTRA:                   0.000
REMARK UNBOUND:                 0.000
REMARK  Name = CT1001562328
REMARK  0 active torsions:
REMARK  status: ('A' for Active; 'I' for Inactive)
REMARK                            x       y       z     vdW  Elec       q    Type
REMARK                         _______ _______ _______ _____ _____    ______ ____
ROOT
ATOM      1  C   UNL     1       5.371  -2.235   4.356  0.00  0.00    +0.000 C 
ATOM      2  O   UNL     1       6.140  -1.542   4.979  0.00  0.00    +0.000 OA
ATOM      3  O   UNL     1       4.602  -2.928   3.733  0.00  0.00    +0.000 OA
ENDROOT
TORSDOF 0
ENDMDL
MODEL 3
REMARK VINA RESULT:    -1.877     16.191     16.400
REMARK INTER + INTRA:          -1.877
REMARK INTER:                  -1.877
REMARK INTRA:                   0.000
REMARK UNBOUND:                 0.000
REMARK  Name = CT1001562328
REMARK  0 active torsions:
REMARK  status: ('A' for Active; 'I' for Inactive)
REMARK                            x       y       z     vdW  Elec       q    Type
REMARK                         _______ _______ _______ _____ _____    ______ ____
ROOT
ATOM      1  C   UNL     1       1.795   7.585  -8.151  0.00  0.00    +0.000 C 
ATOM      2  O   UNL     1       2.971   7.310  -8.100  0.00  0.00    +0.000 OA
ATOM      3  O   UNL     1       0.620   7.861  -8.200  0.00  0.00    +0.000 OA
ENDROOT
TORSDOF 0
ENDMDL
MODEL 4
REMARK VINA RESULT:    -1.863     16.183     16.333
REMARK INTER + INTRA:          -1.863
REMARK INTER:                  -1.863
REMARK INTRA:                   0.000
REMARK UNBOUND:                 0.000
REMARK  Name = CT1001562328
REMARK  0 active torsions:
REMARK  status: ('A' for Active; 'I' for Inactive)
REMARK                            x       y       z     vdW  Elec       q    Type
REMARK                         _______ _______ _______ _____ _____    ______ ____
ROOT
ATOM      1  C   UNL     1       1.737   7.557  -8.149  0.00  0.00    +0.000 C 
ATOM      2  O   UNL     1       0.545   7.753  -8.166  0.00  0.00    +0.000 OA
ATOM      3  O   UNL     1       2.929   7.362  -8.131  0.00  0.00    +0.000 OA
ENDROOT
TORSDOF 0
ENDMDL
MODEL 5
REMARK VINA RESULT:    -1.848      2.828      3.729
REMARK INTER + INTRA:          -1.848
REMARK INTER:                  -1.848
REMARK INTRA:                   0.000
REMARK UNBOUND:                 0.000
REMARK  Name = CT1001562328
REMARK  0 active torsions:
REMARK  status: ('A' for Active; 'I' for Inactive)
REMARK                            x       y       z     vdW  Elec       q    Type
REMARK                         _______ _______ _______ _____ _____    ______ ____
ROOT
ATOM      1  C   UNL     1       3.783  -3.282   1.782  0.00  0.00    +0.000 C 
ATOM      2  O   UNL     1       4.876  -2.995   2.208  0.00  0.00    +0.000 OA
ATOM      3  O   UNL     1       2.690  -3.570   1.355  0.00  0.00    +0.000 OA
ENDROOT
TORSDOF 0
ENDMDL
