MODEL 1
REMARK VINA RESULT:    -2.025      0.000      0.000
REMARK INTER + INTRA:          -2.025
REMARK INTER:                  -2.025
REMARK INTRA:                   0.000
REMARK UNBOUND:                 0.000
REMARK  Name = CT1001562328
REMARK  0 active torsions:
REMARK  status: ('A' for Active; 'I' for Inactive)
REMARK                            x       y       z     vdW  Elec       q    Type
REMARK                         _______ _______ _______ _____ _____    ______ ____
ROOT
ATOM      1  C   UNL     1      -5.944  -8.629  -3.359  0.00  0.00    +0.000 C 
ATOM      2  O   UNL     1      -6.989  -9.131  -3.698  0.00  0.00    +0.000 OA
ATOM      3  O   UNL     1      -4.899  -8.126  -3.020  0.00  0.00    +0.000 OA
ENDROOT
TORSDOF 0
ENDMDL
MODEL 2
REMARK VINA RESULT:    -2.024      0.004      1.973
REMARK INTER + INTRA:          -2.024
REMARK INTER:                  -2.024
REMARK INTRA:                   0.000
REMARK UNBOUND:                 0.000
REMARK  Name = CT1001562328
REMARK  0 active torsions:
REMARK  status: ('A' for Active; 'I' for Inactive)
REMARK                            x       y       z     vdW  Elec       q    Type
REMARK                         _______ _______ _______ _____ _____    ______ ____
ROOT
ATOM      1  C   UNL     1      -5.942  -8.626  -3.360  0.00  0.00    +0.000 C 
ATOM      2  O   UNL     1      -4.898  -8.124  -3.020  0.00  0.00    +0.000 OA
ATOM      3  O   UNL     1      -6.986  -9.130  -3.701  0.00  0.00    +0.000 OA
ENDROOT
TORSDOF 0
ENDMDL
MODEL 3
REMARK VINA RESULT:    -1.716      9.648      9.969
REMARK INTER + INTRA:          -1.716
REMARK INTER:                  -1.716
REMARK INTRA:                   0.000
REMARK UNBOUND:                 0.000
REMARK  Name = CT1001562328
REMARK  0 active torsions:
REMARK  status: ('A' for Active; 'I' for Inactive)
REMARK                            x       y       z     vdW  Elec       q    Type
REMARK                         _______ _______ _______ _____ _____    ______ ____
ROOT
ATOM      1  C   UNL     1      -3.905  -7.790   6.339  0.00  0.00    +0.000 C 
ATOM      2  O   UNL     1      -4.903  -7.527   5.711  0.00  0.00    +0.000 OA
ATOM      3  O   UNL     1      -2.908  -8.053   6.968  0.00  0.00    +0.000 OA
ENDROOT
TORSDOF 0
ENDMDL
MODEL 4
REMARK VINA RESULT:    -1.700      9.819     10.294
REMARK INTER + INTRA:          -1.700
REMARK INTER:                  -1.700
REMARK INTRA:                   0.000
REMARK UNBOUND:                 0.000
REMARK  Name = CT1001562328
REMARK  0 active torsions:
REMARK  status: ('A' for Active; 'I' for Inactive)
REMARK                            x       y       z     vdW  Elec       q    Type
REMARK                         _______ _______ _______ _____ _____    ______ ____
ROOT
ATOM      1  C   UNL     1      -3.672  -7.911   6.484  0.00  0.00    +0.000 C 
ATOM      2  O   UNL     1      -2.697  -8.212   7.131  0.00  0.00    +0.000 OA
ATOM      3  O   UNL     1      -4.647  -7.611   5.836  0.00  0.00    +0.000 OA
ENDROOT
TORSDOF 0
ENDMDL
MODEL 5
REMARK VINA RESULT:    -1.619      9.409      9.602
REMARK INTER + INTRA:          -1.619
REMARK INTER:                  -1.619
REMARK INTRA:                   0.000
REMARK UNBOUND:                 0.000
REMARK  Name = CT1001562328
REMARK  0 active torsions:
REMARK  status: ('A' for Active; 'I' for Inactive)
REMARK                            x       y       z     vdW  Elec       q    Type
REMARK                         _______ _______ _______ _____ _____    ______ ____
ROOT
ATOM      1  C   UNL     1      -4.763  -7.482   5.924  0.00  0.00    +0.000 C 
ATOM      2  O   UNL     1      -3.629  -7.887   6.016  0.00  0.00    +0.000 OA
ATOM      3  O   UNL     1      -5.898  -7.078   5.833  0.00  0.00    +0.000 OA
ENDROOT
TORSDOF 0
ENDMDL
