MODEL 1
REMARK VINA RESULT:    -1.775      0.000      0.000
REMARK INTER + INTRA:          -1.775
REMARK INTER:                  -1.775
REMARK INTRA:                   0.000
REMARK UNBOUND:                 0.000
REMARK  Name = CT1001562328
REMARK  0 active torsions:
REMARK  status: ('A' for Active; 'I' for Inactive)
REMARK                            x       y       z     vdW  Elec       q    Type
REMARK                         _______ _______ _______ _____ _____    ______ ____
ROOT
ATOM      1  C   UNL     1       9.084  -6.008   0.524  0.00  0.00    +0.000 C 
ATOM      2  O   UNL     1       8.992  -4.836   0.245  0.00  0.00    +0.000 OA
ATOM      3  O   UNL     1       9.174  -7.180   0.805  0.00  0.00    +0.000 OA
ENDROOT
TORSDOF 0
ENDMDL
MODEL 2
REMARK VINA RESULT:    -1.773      0.037      1.973
REMARK INTER + INTRA:          -1.773
REMARK INTER:                  -1.773
REMARK INTRA:                   0.000
REMARK UNBOUND:                 0.000
REMARK  Name = CT1001562328
REMARK  0 active torsions:
REMARK  status: ('A' for Active; 'I' for Inactive)
REMARK                            x       y       z     vdW  Elec       q    Type
REMARK                         _______ _______ _______ _____ _____    ______ ____
ROOT
ATOM      1  C   UNL     1       9.071  -6.024   0.505  0.00  0.00    +0.000 C 
ATOM      2  O   UNL     1       9.188  -7.195   0.776  0.00  0.00    +0.000 OA
ATOM      3  O   UNL     1       8.952  -4.852   0.234  0.00  0.00    +0.000 OA
ENDROOT
TORSDOF 0
ENDMDL
MODEL 3
REMARK VINA RESULT:    -1.764      3.743      4.309
REMARK INTER + INTRA:          -1.764
REMARK INTER:                  -1.764
REMARK INTRA:                   0.000
REMARK UNBOUND:                 0.000
REMARK  Name = CT1001562328
REMARK  0 active torsions:
REMARK  status: ('A' for Active; 'I' for Inactive)
REMARK                            x       y       z     vdW  Elec       q    Type
REMARK                         _______ _______ _______ _____ _____    ______ ____
ROOT
ATOM      1  C   UNL     1       8.150  -7.292   4.099  0.00  0.00    +0.000 C 
ATOM      2  O   UNL     1       8.869  -7.907   4.850  0.00  0.00    +0.000 OA
ATOM      3  O   UNL     1       7.432  -6.677   3.347  0.00  0.00    +0.000 OA
ENDROOT
TORSDOF 0
ENDMDL
MODEL 4
REMARK VINA RESULT:    -1.763      3.754      4.002
REMARK INTER + INTRA:          -1.763
REMARK INTER:                  -1.763
REMARK INTRA:                   0.000
REMARK UNBOUND:                 0.000
REMARK  Name = CT1001562328
REMARK  0 active torsions:
REMARK  status: ('A' for Active; 'I' for Inactive)
REMARK                            x       y       z     vdW  Elec       q    Type
REMARK                         _______ _______ _______ _____ _____    ______ ____
ROOT
ATOM      1  C   UNL     1       8.158  -7.299   4.112  0.00  0.00    +0.000 C 
ATOM      2  O   UNL     1       7.441  -6.686   3.357  0.00  0.00    +0.000 OA
ATOM      3  O   UNL     1       8.875  -7.913   4.867  0.00  0.00    +0.000 OA
ENDROOT
TORSDOF 0
ENDMDL
MODEL 5
REMARK VINA RESULT:    -1.694      9.577      9.781
REMARK INTER + INTRA:          -1.694
REMARK INTER:                  -1.694
REMARK INTRA:                   0.000
REMARK UNBOUND:                 0.000
REMARK  Name = CT1001562328
REMARK  0 active torsions:
REMARK  status: ('A' for Active; 'I' for Inactive)
REMARK                            x       y       z     vdW  Elec       q    Type
REMARK                         _______ _______ _______ _____ _____    ______ ____
ROOT
ATOM      1  C   UNL     1       9.311  -1.944   9.227  0.00  0.00    +0.000 C 
ATOM      2  O   UNL     1      10.125  -2.661   9.758  0.00  0.00    +0.000 OA
ATOM      3  O   UNL     1       8.496  -1.227   8.696  0.00  0.00    +0.000 OA
ENDROOT
TORSDOF 0
ENDMDL
