MODEL 1
REMARK VINA RESULT:    -1.995      0.000      0.000
REMARK INTER + INTRA:          -1.995
REMARK INTER:                  -1.995
REMARK INTRA:                   0.000
REMARK UNBOUND:                 0.000
REMARK  Name = CT1001562328
REMARK  0 active torsions:
REMARK  status: ('A' for Active; 'I' for Inactive)
REMARK                            x       y       z     vdW  Elec       q    Type
REMARK                         _______ _______ _______ _____ _____    ______ ____
ROOT
ATOM      1  C   UNL     1       2.651   2.181  -0.113  0.00  0.00    +0.000 C 
ATOM      2  O   UNL     1       1.992   2.529  -1.064  0.00  0.00    +0.000 OA
ATOM      3  O   UNL     1       3.309   1.834   0.838  0.00  0.00    +0.000 OA
ENDROOT
TORSDOF 0
ENDMDL
MODEL 2
REMARK VINA RESULT:    -1.986      0.034      1.973
REMARK INTER + INTRA:          -1.986
REMARK INTER:                  -1.986
REMARK INTRA:                   0.000
REMARK UNBOUND:                 0.000
REMARK  Name = CT1001562328
REMARK  0 active torsions:
REMARK  status: ('A' for Active; 'I' for Inactive)
REMARK                            x       y       z     vdW  Elec       q    Type
REMARK                         _______ _______ _______ _____ _____    ______ ____
ROOT
ATOM      1  C   UNL     1       2.660   2.208  -0.111  0.00  0.00    +0.000 C 
ATOM      2  O   UNL     1       3.329   1.846   0.828  0.00  0.00    +0.000 OA
ATOM      3  O   UNL     1       1.990   2.571  -1.048  0.00  0.00    +0.000 OA
ENDROOT
TORSDOF 0
ENDMDL
MODEL 3
REMARK VINA RESULT:    -1.859      2.584      3.308
REMARK INTER + INTRA:          -1.859
REMARK INTER:                  -1.859
REMARK INTRA:                   0.000
REMARK UNBOUND:                 0.000
REMARK  Name = CT1001562328
REMARK  0 active torsions:
REMARK  status: ('A' for Active; 'I' for Inactive)
REMARK                            x       y       z     vdW  Elec       q    Type
REMARK                         _______ _______ _______ _____ _____    ______ ____
ROOT
ATOM      1  C   UNL     1       1.851   4.159  -2.044  0.00  0.00    +0.000 C 
ATOM      2  O   UNL     1       1.698   2.985  -1.805  0.00  0.00    +0.000 OA
ATOM      3  O   UNL     1       2.005   5.333  -2.285  0.00  0.00    +0.000 OA
ENDROOT
TORSDOF 0
ENDMDL
MODEL 4
REMARK VINA RESULT:    -1.696      6.036      6.353
REMARK INTER + INTRA:          -1.696
REMARK INTER:                  -1.696
REMARK INTRA:                   0.000
REMARK UNBOUND:                 0.000
REMARK  Name = CT1001562328
REMARK  0 active torsions:
REMARK  status: ('A' for Active; 'I' for Inactive)
REMARK                            x       y       z     vdW  Elec       q    Type
REMARK                         _______ _______ _______ _____ _____    ______ ____
ROOT
ATOM      1  C   UNL     1       1.886   2.052   5.921  0.00  0.00    +0.000 C 
ATOM      2  O   UNL     1       2.967   2.338   6.379  0.00  0.00    +0.000 OA
ATOM      3  O   UNL     1       0.804   1.765   5.465  0.00  0.00    +0.000 OA
ENDROOT
TORSDOF 0
ENDMDL
MODEL 5
REMARK VINA RESULT:    -1.696      6.037      6.129
REMARK INTER + INTRA:          -1.696
REMARK INTER:                  -1.696
REMARK INTRA:                   0.000
REMARK UNBOUND:                 0.000
REMARK  Name = CT1001562328
REMARK  0 active torsions:
REMARK  status: ('A' for Active; 'I' for Inactive)
REMARK                            x       y       z     vdW  Elec       q    Type
REMARK                         _______ _______ _______ _____ _____    ______ ____
ROOT
ATOM      1  C   UNL     1       1.884   2.055   5.922  0.00  0.00    +0.000 C 
ATOM      2  O   UNL     1       0.802   1.771   5.465  0.00  0.00    +0.000 OA
ATOM      3  O   UNL     1       2.966   2.336   6.378  0.00  0.00    +0.000 OA
ENDROOT
TORSDOF 0
ENDMDL
