MODEL 1
REMARK VINA RESULT:    -1.840      0.000      0.000
REMARK INTER + INTRA:          -1.840
REMARK INTER:                  -1.840
REMARK INTRA:                   0.000
REMARK UNBOUND:                 0.000
REMARK  Name = CT1001562328
REMARK  0 active torsions:
REMARK  status: ('A' for Active; 'I' for Inactive)
REMARK                            x       y       z     vdW  Elec       q    Type
REMARK                         _______ _______ _______ _____ _____    ______ ____
ROOT
ATOM      1  C   UNL     1       3.178  -4.193   9.696  0.00  0.00    +0.000 C 
ATOM      2  O   UNL     1       2.924  -3.093   9.267  0.00  0.00    +0.000 OA
ATOM      3  O   UNL     1       3.431  -5.294  10.124  0.00  0.00    +0.000 OA
ENDROOT
TORSDOF 0
ENDMDL
MODEL 2
REMARK VINA RESULT:    -1.827     10.063     10.502
REMARK INTER + INTRA:          -1.827
REMARK INTER:                  -1.827
REMARK INTRA:                   0.000
REMARK UNBOUND:                 0.000
REMARK  Name = CT1001562328
REMARK  0 active torsions:
REMARK  status: ('A' for Active; 'I' for Inactive)
REMARK                            x       y       z     vdW  Elec       q    Type
REMARK                         _______ _______ _______ _____ _____    ______ ____
ROOT
ATOM      1  C   UNL     1       1.776   6.175   9.107  0.00  0.00    +0.000 C 
ATOM      2  O   UNL     1       2.203   6.944   8.279  0.00  0.00    +0.000 OA
ATOM      3  O   UNL     1       1.351   5.406   9.936  0.00  0.00    +0.000 OA
ENDROOT
TORSDOF 0
ENDMDL
MODEL 3
REMARK VINA RESULT:    -1.813     10.103     10.698
REMARK INTER + INTRA:          -1.813
REMARK INTER:                  -1.813
REMARK INTRA:                   0.000
REMARK UNBOUND:                 0.000
REMARK  Name = CT1001562328
REMARK  0 active torsions:
REMARK  status: ('A' for Active; 'I' for Inactive)
REMARK                            x       y       z     vdW  Elec       q    Type
REMARK                         _______ _______ _______ _____ _____    ______ ____
ROOT
ATOM      1  C   UNL     1       1.843   6.239   9.046  0.00  0.00    +0.000 C 
ATOM      2  O   UNL     1       1.416   5.449   9.854  0.00  0.00    +0.000 OA
ATOM      3  O   UNL     1       2.270   7.028   8.237  0.00  0.00    +0.000 OA
ENDROOT
TORSDOF 0
ENDMDL
MODEL 4
REMARK VINA RESULT:    -1.761     18.867     19.049
REMARK INTER + INTRA:          -1.761
REMARK INTER:                  -1.761
REMARK INTRA:                   0.000
REMARK UNBOUND:                 0.000
REMARK  Name = CT1001562328
REMARK  0 active torsions:
REMARK  status: ('A' for Active; 'I' for Inactive)
REMARK                            x       y       z     vdW  Elec       q    Type
REMARK                         _______ _______ _______ _____ _____    ______ ____
ROOT
ATOM      1  C   UNL     1      -7.296   4.704  -3.375  0.00  0.00    +0.000 C 
ATOM      2  O   UNL     1      -8.057   3.831  -3.033  0.00  0.00    +0.000 OA
ATOM      3  O   UNL     1      -6.535   5.578  -3.716  0.00  0.00    +0.000 OA
ENDROOT
TORSDOF 0
ENDMDL
MODEL 5
REMARK VINA RESULT:    -1.753     18.789     18.932
REMARK INTER + INTRA:          -1.753
REMARK INTER:                  -1.753
REMARK INTRA:                   0.000
REMARK UNBOUND:                 0.000
REMARK  Name = CT1001562328
REMARK  0 active torsions:
REMARK  status: ('A' for Active; 'I' for Inactive)
REMARK                            x       y       z     vdW  Elec       q    Type
REMARK                         _______ _______ _______ _____ _____    ______ ____
ROOT
ATOM      1  C   UNL     1      -7.229   4.643  -3.398  0.00  0.00    +0.000 C 
ATOM      2  O   UNL     1      -6.563   5.618  -3.658  0.00  0.00    +0.000 OA
ATOM      3  O   UNL     1      -7.895   3.670  -3.138  0.00  0.00    +0.000 OA
ENDROOT
TORSDOF 0
ENDMDL
