MODEL 1
REMARK VINA RESULT:    -1.910      0.000      0.000
REMARK INTER + INTRA:          -1.910
REMARK INTER:                  -1.910
REMARK INTRA:                   0.000
REMARK UNBOUND:                 0.000
REMARK  Name = CT1001562328
REMARK  0 active torsions:
REMARK  status: ('A' for Active; 'I' for Inactive)
REMARK                            x       y       z     vdW  Elec       q    Type
REMARK                         _______ _______ _______ _____ _____    ______ ____
ROOT
ATOM      1  C   UNL     1       5.369  -2.236   4.362  0.00  0.00    +0.000 C 
ATOM      2  O   UNL     1       6.159  -1.559   4.975  0.00  0.00    +0.000 OA
ATOM      3  O   UNL     1       4.578  -2.913   3.748  0.00  0.00    +0.000 OA
ENDROOT
TORSDOF 0
ENDMDL
MODEL 2
REMARK VINA RESULT:    -1.910      0.016      1.973
REMARK INTER + INTRA:          -1.910
REMARK INTER:                  -1.910
REMARK INTRA:                   0.000
REMARK UNBOUND:                 0.000
REMARK  Name = CT1001562328
REMARK  0 active torsions:
REMARK  status: ('A' for Active; 'I' for Inactive)
REMARK                            x       y       z     vdW  Elec       q    Type
REMARK                         _______ _______ _______ _____ _____    ______ ____
ROOT
ATOM      1  C   UNL     1       5.380  -2.230   4.354  0.00  0.00    +0.000 C 
ATOM      2  O   UNL     1       4.593  -2.913   3.744  0.00  0.00    +0.000 OA
ATOM      3  O   UNL     1       6.166  -1.545   4.965  0.00  0.00    +0.000 OA
ENDROOT
TORSDOF 0
ENDMDL
MODEL 3
REMARK VINA RESULT:    -1.855     16.188     16.310
REMARK INTER + INTRA:          -1.855
REMARK INTER:                  -1.855
REMARK INTRA:                   0.000
REMARK UNBOUND:                 0.000
REMARK  Name = CT1001562328
REMARK  0 active torsions:
REMARK  status: ('A' for Active; 'I' for Inactive)
REMARK                            x       y       z     vdW  Elec       q    Type
REMARK                         _______ _______ _______ _____ _____    ______ ____
ROOT
ATOM      1  C   UNL     1       1.801   7.586  -8.129  0.00  0.00    +0.000 C 
ATOM      2  O   UNL     1       2.980   7.357  -8.003  0.00  0.00    +0.000 OA
ATOM      3  O   UNL     1       0.622   7.816  -8.255  0.00  0.00    +0.000 OA
ENDROOT
TORSDOF 0
ENDMDL
MODEL 4
REMARK VINA RESULT:    -1.836     16.170     16.368
REMARK INTER + INTRA:          -1.836
REMARK INTER:                  -1.836
REMARK INTRA:                   0.000
REMARK UNBOUND:                 0.000
REMARK  Name = CT1001562328
REMARK  0 active torsions:
REMARK  status: ('A' for Active; 'I' for Inactive)
REMARK                            x       y       z     vdW  Elec       q    Type
REMARK                         _______ _______ _______ _____ _____    ______ ____
ROOT
ATOM      1  C   UNL     1       1.744   7.545  -8.125  0.00  0.00    +0.000 C 
ATOM      2  O   UNL     1       0.542   7.640  -8.210  0.00  0.00    +0.000 OA
ATOM      3  O   UNL     1       2.945   7.451  -8.038  0.00  0.00    +0.000 OA
ENDROOT
TORSDOF 0
ENDMDL
MODEL 5
REMARK VINA RESULT:    -1.833      1.965      3.033
REMARK INTER + INTRA:          -1.833
REMARK INTER:                  -1.833
REMARK INTRA:                   0.000
REMARK UNBOUND:                 0.000
REMARK  Name = CT1001562328
REMARK  0 active torsions:
REMARK  status: ('A' for Active; 'I' for Inactive)
REMARK                            x       y       z     vdW  Elec       q    Type
REMARK                         _______ _______ _______ _____ _____    ______ ____
ROOT
ATOM      1  C   UNL     1       4.180  -3.150   2.569  0.00  0.00    +0.000 C 
ATOM      2  O   UNL     1       3.528  -3.510   1.618  0.00  0.00    +0.000 OA
ATOM      3  O   UNL     1       4.830  -2.789   3.521  0.00  0.00    +0.000 OA
ENDROOT
TORSDOF 0
ENDMDL
