MODEL 1
REMARK VINA RESULT:    -2.025      0.000      0.000
REMARK INTER + INTRA:          -2.025
REMARK INTER:                  -2.025
REMARK INTRA:                   0.000
REMARK UNBOUND:                 0.000
REMARK  Name = CT1001562328
REMARK  0 active torsions:
REMARK  status: ('A' for Active; 'I' for Inactive)
REMARK                            x       y       z     vdW  Elec       q    Type
REMARK                         _______ _______ _______ _____ _____    ______ ____
ROOT
ATOM      1  C   UNL     1      -5.942  -8.629  -3.360  0.00  0.00    +0.000 C 
ATOM      2  O   UNL     1      -6.987  -9.131  -3.700  0.00  0.00    +0.000 OA
ATOM      3  O   UNL     1      -4.898  -8.126  -3.019  0.00  0.00    +0.000 OA
ENDROOT
TORSDOF 0
ENDMDL
MODEL 2
REMARK VINA RESULT:    -2.024      0.002      1.973
REMARK INTER + INTRA:          -2.024
REMARK INTER:                  -2.024
REMARK INTRA:                   0.000
REMARK UNBOUND:                 0.000
REMARK  Name = CT1001562328
REMARK  0 active torsions:
REMARK  status: ('A' for Active; 'I' for Inactive)
REMARK                            x       y       z     vdW  Elec       q    Type
REMARK                         _______ _______ _______ _____ _____    ______ ____
ROOT
ATOM      1  C   UNL     1      -5.944  -8.629  -3.360  0.00  0.00    +0.000 C 
ATOM      2  O   UNL     1      -4.899  -8.125  -3.021  0.00  0.00    +0.000 OA
ATOM      3  O   UNL     1      -6.989  -9.131  -3.698  0.00  0.00    +0.000 OA
ENDROOT
TORSDOF 0
ENDMDL
MODEL 3
REMARK VINA RESULT:    -1.718      9.652     10.126
REMARK INTER + INTRA:          -1.718
REMARK INTER:                  -1.718
REMARK INTRA:                   0.000
REMARK UNBOUND:                 0.000
REMARK  Name = CT1001562328
REMARK  0 active torsions:
REMARK  status: ('A' for Active; 'I' for Inactive)
REMARK                            x       y       z     vdW  Elec       q    Type
REMARK                         _______ _______ _______ _____ _____    ______ ____
ROOT
ATOM      1  C   UNL     1      -3.835  -7.826   6.335  0.00  0.00    +0.000 C 
ATOM      2  O   UNL     1      -2.845  -8.074   6.982  0.00  0.00    +0.000 OA
ATOM      3  O   UNL     1      -4.824  -7.576   5.689  0.00  0.00    +0.000 OA
ENDROOT
TORSDOF 0
ENDMDL
MODEL 4
REMARK VINA RESULT:    -1.716      9.711     10.036
REMARK INTER + INTRA:          -1.716
REMARK INTER:                  -1.716
REMARK INTRA:                   0.000
REMARK UNBOUND:                 0.000
REMARK  Name = CT1001562328
REMARK  0 active torsions:
REMARK  status: ('A' for Active; 'I' for Inactive)
REMARK                            x       y       z     vdW  Elec       q    Type
REMARK                         _______ _______ _______ _____ _____    ______ ____
ROOT
ATOM      1  C   UNL     1      -3.816  -7.841   6.394  0.00  0.00    +0.000 C 
ATOM      2  O   UNL     1      -4.790  -7.587   5.727  0.00  0.00    +0.000 OA
ATOM      3  O   UNL     1      -2.840  -8.094   7.060  0.00  0.00    +0.000 OA
ENDROOT
TORSDOF 0
ENDMDL
MODEL 5
REMARK VINA RESULT:    -1.660      9.541      9.881
REMARK INTER + INTRA:          -1.660
REMARK INTER:                  -1.660
REMARK INTRA:                   0.000
REMARK UNBOUND:                 0.000
REMARK  Name = CT1001562328
REMARK  0 active torsions:
REMARK  status: ('A' for Active; 'I' for Inactive)
REMARK                            x       y       z     vdW  Elec       q    Type
REMARK                         _______ _______ _______ _____ _____    ______ ____
ROOT
ATOM      1  C   UNL     1      -3.368  -8.544   6.148  0.00  0.00    +0.000 C 
ATOM      2  O   UNL     1      -3.722  -9.175   5.180  0.00  0.00    +0.000 OA
ATOM      3  O   UNL     1      -3.013  -7.915   7.116  0.00  0.00    +0.000 OA
ENDROOT
TORSDOF 0
ENDMDL
