MODEL 1
REMARK VINA RESULT:    -1.759      0.000      0.000
REMARK INTER + INTRA:          -1.759
REMARK INTER:                  -1.759
REMARK INTRA:                   0.000
REMARK UNBOUND:                 0.000
REMARK  Name = CT1001562328
REMARK  0 active torsions:
REMARK  status: ('A' for Active; 'I' for Inactive)
REMARK                            x       y       z     vdW  Elec       q    Type
REMARK                         _______ _______ _______ _____ _____    ______ ____
ROOT
ATOM      1  C   UNL     1      -1.186   7.474   8.016  0.00  0.00    +0.000 C 
ATOM      2  O   UNL     1      -0.930   6.968   6.949  0.00  0.00    +0.000 OA
ATOM      3  O   UNL     1      -1.443   7.982   9.082  0.00  0.00    +0.000 OA
ENDROOT
TORSDOF 0
ENDMDL
MODEL 2
REMARK VINA RESULT:    -1.756      0.015      1.973
REMARK INTER + INTRA:          -1.756
REMARK INTER:                  -1.756
REMARK INTRA:                   0.000
REMARK UNBOUND:                 0.000
REMARK  Name = CT1001562328
REMARK  0 active torsions:
REMARK  status: ('A' for Active; 'I' for Inactive)
REMARK                            x       y       z     vdW  Elec       q    Type
REMARK                         _______ _______ _______ _____ _____    ______ ____
ROOT
ATOM      1  C   UNL     1      -1.180   7.477   8.003  0.00  0.00    +0.000 C 
ATOM      2  O   UNL     1      -1.439   7.979   9.070  0.00  0.00    +0.000 OA
ATOM      3  O   UNL     1      -0.921   6.975   6.935  0.00  0.00    +0.000 OA
ENDROOT
TORSDOF 0
ENDMDL
MODEL 3
REMARK VINA RESULT:    -1.670      8.386      8.747
REMARK INTER + INTRA:          -1.670
REMARK INTER:                  -1.670
REMARK INTRA:                   0.000
REMARK UNBOUND:                 0.000
REMARK  Name = CT1001562328
REMARK  0 active torsions:
REMARK  status: ('A' for Active; 'I' for Inactive)
REMARK                            x       y       z     vdW  Elec       q    Type
REMARK                         _______ _______ _______ _____ _____    ______ ____
ROOT
ATOM      1  C   UNL     1       3.583   0.226   6.957  0.00  0.00    +0.000 C 
ATOM      2  O   UNL     1       4.199  -0.127   5.979  0.00  0.00    +0.000 OA
ATOM      3  O   UNL     1       2.969   0.580   7.936  0.00  0.00    +0.000 OA
ENDROOT
TORSDOF 0
ENDMDL
MODEL 4
REMARK VINA RESULT:    -1.660      8.438      9.001
REMARK INTER + INTRA:          -1.660
REMARK INTER:                  -1.660
REMARK INTRA:                   0.000
REMARK UNBOUND:                 0.000
REMARK  Name = CT1001562328
REMARK  0 active torsions:
REMARK  status: ('A' for Active; 'I' for Inactive)
REMARK                            x       y       z     vdW  Elec       q    Type
REMARK                         _______ _______ _______ _____ _____    ______ ____
ROOT
ATOM      1  C   UNL     1       3.627   0.191   6.972  0.00  0.00    +0.000 C 
ATOM      2  O   UNL     1       2.909   0.461   7.905  0.00  0.00    +0.000 OA
ATOM      3  O   UNL     1       4.346  -0.078   6.039  0.00  0.00    +0.000 OA
ENDROOT
TORSDOF 0
ENDMDL
MODEL 5
REMARK VINA RESULT:    -1.637     11.910     12.392
REMARK INTER + INTRA:          -1.637
REMARK INTER:                  -1.637
REMARK INTRA:                   0.000
REMARK UNBOUND:                 0.000
REMARK  Name = CT1001562328
REMARK  0 active torsions:
REMARK  status: ('A' for Active; 'I' for Inactive)
REMARK                            x       y       z     vdW  Elec       q    Type
REMARK                         _______ _______ _______ _____ _____    ______ ____
ROOT
ATOM      1  C   UNL     1       7.103   9.310  -0.878  0.00  0.00    +0.000 C 
ATOM      2  O   UNL     1       5.924   9.553  -0.975  0.00  0.00    +0.000 OA
ATOM      3  O   UNL     1       8.282   9.066  -0.780  0.00  0.00    +0.000 OA
ENDROOT
TORSDOF 0
ENDMDL
