MODEL 1
REMARK VINA RESULT:    -1.989      0.000      0.000
REMARK INTER + INTRA:          -1.989
REMARK INTER:                  -1.989
REMARK INTRA:                   0.000
REMARK UNBOUND:                 0.000
REMARK  Name = CT1001562328
REMARK  0 active torsions:
REMARK  status: ('A' for Active; 'I' for Inactive)
REMARK                            x       y       z     vdW  Elec       q    Type
REMARK                         _______ _______ _______ _____ _____    ______ ____
ROOT
ATOM      1  C   UNL     1       2.667   2.206  -0.106  0.00  0.00    +0.000 C 
ATOM      2  O   UNL     1       3.336   1.843   0.832  0.00  0.00    +0.000 OA
ATOM      3  O   UNL     1       1.998   2.567  -1.044  0.00  0.00    +0.000 OA
ENDROOT
TORSDOF 0
ENDMDL
MODEL 2
REMARK VINA RESULT:    -1.989      0.083      1.972
REMARK INTER + INTRA:          -1.989
REMARK INTER:                  -1.989
REMARK INTRA:                   0.000
REMARK UNBOUND:                 0.000
REMARK  Name = CT1001562328
REMARK  0 active torsions:
REMARK  status: ('A' for Active; 'I' for Inactive)
REMARK                            x       y       z     vdW  Elec       q    Type
REMARK                         _______ _______ _______ _____ _____    ______ ____
ROOT
ATOM      1  C   UNL     1       2.707   2.213  -0.107  0.00  0.00    +0.000 C 
ATOM      2  O   UNL     1       1.976   2.520  -1.018  0.00  0.00    +0.000 OA
ATOM      3  O   UNL     1       3.440   1.906   0.804  0.00  0.00    +0.000 OA
ENDROOT
TORSDOF 0
ENDMDL
MODEL 3
REMARK VINA RESULT:    -1.848      2.358      2.885
REMARK INTER + INTRA:          -1.848
REMARK INTER:                  -1.848
REMARK INTRA:                   0.000
REMARK UNBOUND:                 0.000
REMARK  Name = CT1001562328
REMARK  0 active torsions:
REMARK  status: ('A' for Active; 'I' for Inactive)
REMARK                            x       y       z     vdW  Elec       q    Type
REMARK                         _______ _______ _______ _____ _____    ______ ____
ROOT
ATOM      1  C   UNL     1       1.877   4.100  -1.887  0.00  0.00    +0.000 C 
ATOM      2  O   UNL     1       1.866   2.950  -1.516  0.00  0.00    +0.000 OA
ATOM      3  O   UNL     1       1.889   5.250  -2.257  0.00  0.00    +0.000 OA
ENDROOT
TORSDOF 0
ENDMDL
MODEL 4
REMARK VINA RESULT:    -1.691      6.052      6.358
REMARK INTER + INTRA:          -1.691
REMARK INTER:                  -1.691
REMARK INTRA:                   0.000
REMARK UNBOUND:                 0.000
REMARK  Name = CT1001562328
REMARK  0 active torsions:
REMARK  status: ('A' for Active; 'I' for Inactive)
REMARK                            x       y       z     vdW  Elec       q    Type
REMARK                         _______ _______ _______ _____ _____    ______ ____
ROOT
ATOM      1  C   UNL     1       1.891   2.055   5.932  0.00  0.00    +0.000 C 
ATOM      2  O   UNL     1       0.805   1.768   5.487  0.00  0.00    +0.000 OA
ATOM      3  O   UNL     1       2.977   2.343   6.378  0.00  0.00    +0.000 OA
ENDROOT
TORSDOF 0
ENDMDL
MODEL 5
REMARK VINA RESULT:    -1.689      6.057      6.137
REMARK INTER + INTRA:          -1.689
REMARK INTER:                  -1.689
REMARK INTRA:                   0.000
REMARK UNBOUND:                 0.000
REMARK  Name = CT1001562328
REMARK  0 active torsions:
REMARK  status: ('A' for Active; 'I' for Inactive)
REMARK                            x       y       z     vdW  Elec       q    Type
REMARK                         _______ _______ _______ _____ _____    ______ ____
ROOT
ATOM      1  C   UNL     1       1.891   2.052   5.934  0.00  0.00    +0.000 C 
ATOM      2  O   UNL     1       2.979   2.335   6.376  0.00  0.00    +0.000 OA
ATOM      3  O   UNL     1       0.803   1.769   5.493  0.00  0.00    +0.000 OA
ENDROOT
TORSDOF 0
ENDMDL
