MODEL 1
REMARK VINA RESULT:    -1.846      0.000      0.000
REMARK INTER + INTRA:          -1.846
REMARK INTER:                  -1.846
REMARK INTRA:                   0.000
REMARK UNBOUND:                 0.000
REMARK  Name = CT1001562328
REMARK  0 active torsions:
REMARK  status: ('A' for Active; 'I' for Inactive)
REMARK                            x       y       z     vdW  Elec       q    Type
REMARK                         _______ _______ _______ _____ _____    ______ ____
ROOT
ATOM      1  C   UNL     1      -1.125  -9.178  -1.875  0.00  0.00    +0.000 C 
ATOM      2  O   UNL     1      -0.375 -10.125  -1.876  0.00  0.00    +0.000 OA
ATOM      3  O   UNL     1      -1.876  -8.231  -1.874  0.00  0.00    +0.000 OA
ENDROOT
TORSDOF 0
ENDMDL
MODEL 2
REMARK VINA RESULT:    -1.844      0.035      1.973
REMARK INTER + INTRA:          -1.844
REMARK INTER:                  -1.844
REMARK INTRA:                   0.000
REMARK UNBOUND:                 0.000
REMARK  Name = CT1001562328
REMARK  0 active torsions:
REMARK  status: ('A' for Active; 'I' for Inactive)
REMARK                            x       y       z     vdW  Elec       q    Type
REMARK                         _______ _______ _______ _____ _____    ______ ____
ROOT
ATOM      1  C   UNL     1      -1.126  -9.188  -1.898  0.00  0.00    +0.000 C 
ATOM      2  O   UNL     1      -1.887  -8.250  -1.870  0.00  0.00    +0.000 OA
ATOM      3  O   UNL     1      -0.365 -10.125  -1.925  0.00  0.00    +0.000 OA
ENDROOT
TORSDOF 0
ENDMDL
MODEL 3
REMARK VINA RESULT:    -1.635     15.780     15.780
REMARK INTER + INTRA:          -1.635
REMARK INTER:                  -1.635
REMARK INTRA:                   0.000
REMARK UNBOUND:                 0.000
REMARK  Name = CT1001562328
REMARK  0 active torsions:
REMARK  status: ('A' for Active; 'I' for Inactive)
REMARK                            x       y       z     vdW  Elec       q    Type
REMARK                         _______ _______ _______ _____ _____    ______ ____
ROOT
ATOM      1  C   UNL     1       8.133   2.624   2.947  0.00  0.00    +0.000 C 
ATOM      2  O   UNL     1       8.967   2.337   2.122  0.00  0.00    +0.000 OA
ATOM      3  O   UNL     1       7.298   2.911   3.773  0.00  0.00    +0.000 OA
ENDROOT
TORSDOF 0
ENDMDL
MODEL 4
REMARK VINA RESULT:    -1.634     15.793     15.868
REMARK INTER + INTRA:          -1.634
REMARK INTER:                  -1.634
REMARK INTRA:                   0.000
REMARK UNBOUND:                 0.000
REMARK  Name = CT1001562328
REMARK  0 active torsions:
REMARK  status: ('A' for Active; 'I' for Inactive)
REMARK                            x       y       z     vdW  Elec       q    Type
REMARK                         _______ _______ _______ _____ _____    ______ ____
ROOT
ATOM      1  C   UNL     1       8.125   2.642   2.962  0.00  0.00    +0.000 C 
ATOM      2  O   UNL     1       7.292   2.922   3.790  0.00  0.00    +0.000 OA
ATOM      3  O   UNL     1       8.958   2.361   2.132  0.00  0.00    +0.000 OA
ENDROOT
TORSDOF 0
ENDMDL
MODEL 5
REMARK VINA RESULT:    -1.619     18.473     18.843
REMARK INTER + INTRA:          -1.619
REMARK INTER:                  -1.619
REMARK INTRA:                   0.000
REMARK UNBOUND:                 0.000
REMARK  Name = CT1001562328
REMARK  0 active torsions:
REMARK  status: ('A' for Active; 'I' for Inactive)
REMARK                            x       y       z     vdW  Elec       q    Type
REMARK                         _______ _______ _______ _____ _____    ______ ____
ROOT
ATOM      1  C   UNL     1      -5.059   9.067  -4.154  0.00  0.00    +0.000 C 
ATOM      2  O   UNL     1      -5.641   8.269  -4.850  0.00  0.00    +0.000 OA
ATOM      3  O   UNL     1      -4.478   9.865  -3.458  0.00  0.00    +0.000 OA
ENDROOT
TORSDOF 0
ENDMDL
