MODEL 1
REMARK VINA RESULT:    -1.859      0.000      0.000
REMARK INTER + INTRA:          -1.859
REMARK INTER:                  -1.859
REMARK INTRA:                   0.000
REMARK UNBOUND:                 0.000
REMARK  Name = CT1001562328
REMARK  0 active torsions:
REMARK  status: ('A' for Active; 'I' for Inactive)
REMARK                            x       y       z     vdW  Elec       q    Type
REMARK                         _______ _______ _______ _____ _____    ______ ____
ROOT
ATOM      1  C   UNL     1      -1.147  -9.139  -1.896  0.00  0.00    +0.000 C 
ATOM      2  O   UNL     1      -1.850  -8.157  -1.859  0.00  0.00    +0.000 OA
ATOM      3  O   UNL     1      -0.444 -10.121  -1.932  0.00  0.00    +0.000 OA
ENDROOT
TORSDOF 0
ENDMDL
MODEL 2
REMARK VINA RESULT:    -1.848      0.083      1.972
REMARK INTER + INTRA:          -1.848
REMARK INTER:                  -1.848
REMARK INTRA:                   0.000
REMARK UNBOUND:                 0.000
REMARK  Name = CT1001562328
REMARK  0 active torsions:
REMARK  status: ('A' for Active; 'I' for Inactive)
REMARK                            x       y       z     vdW  Elec       q    Type
REMARK                         _______ _______ _______ _____ _____    ______ ____
ROOT
ATOM      1  C   UNL     1      -1.132  -9.186  -1.880  0.00  0.00    +0.000 C 
ATOM      2  O   UNL     1      -0.372 -10.125  -1.885  0.00  0.00    +0.000 OA
ATOM      3  O   UNL     1      -1.894  -8.249  -1.875  0.00  0.00    +0.000 OA
ENDROOT
TORSDOF 0
ENDMDL
MODEL 3
REMARK VINA RESULT:    -1.670      1.010      1.010
REMARK INTER + INTRA:          -1.670
REMARK INTER:                  -1.670
REMARK INTRA:                   0.000
REMARK UNBOUND:                 0.000
REMARK  Name = CT1001562328
REMARK  0 active torsions:
REMARK  status: ('A' for Active; 'I' for Inactive)
REMARK                            x       y       z     vdW  Elec       q    Type
REMARK                         _______ _______ _______ _____ _____    ______ ____
ROOT
ATOM      1  C   UNL     1      -0.519  -9.634  -2.230  0.00  0.00    +0.000 C 
ATOM      2  O   UNL     1      -1.623  -9.144  -2.219  0.00  0.00    +0.000 OA
ATOM      3  O   UNL     1       0.585 -10.124  -2.240  0.00  0.00    +0.000 OA
ENDROOT
TORSDOF 0
ENDMDL
MODEL 4
REMARK VINA RESULT:    -1.637     15.737     15.826
REMARK INTER + INTRA:          -1.637
REMARK INTER:                  -1.637
REMARK INTRA:                   0.000
REMARK UNBOUND:                 0.000
REMARK  Name = CT1001562328
REMARK  0 active torsions:
REMARK  status: ('A' for Active; 'I' for Inactive)
REMARK                            x       y       z     vdW  Elec       q    Type
REMARK                         _______ _______ _______ _____ _____    ______ ____
ROOT
ATOM      1  C   UNL     1       8.123   2.612   2.948  0.00  0.00    +0.000 C 
ATOM      2  O   UNL     1       8.952   2.423   2.090  0.00  0.00    +0.000 OA
ATOM      3  O   UNL     1       7.293   2.800   3.805  0.00  0.00    +0.000 OA
ENDROOT
TORSDOF 0
ENDMDL
MODEL 5
REMARK VINA RESULT:    -1.634     15.750     15.766
REMARK INTER + INTRA:          -1.634
REMARK INTER:                  -1.634
REMARK INTRA:                   0.000
REMARK UNBOUND:                 0.000
REMARK  Name = CT1001562328
REMARK  0 active torsions:
REMARK  status: ('A' for Active; 'I' for Inactive)
REMARK                            x       y       z     vdW  Elec       q    Type
REMARK                         _______ _______ _______ _____ _____    ______ ____
ROOT
ATOM      1  C   UNL     1       8.127   2.619   2.948  0.00  0.00    +0.000 C 
ATOM      2  O   UNL     1       7.300   2.815   3.807  0.00  0.00    +0.000 OA
ATOM      3  O   UNL     1       8.953   2.422   2.089  0.00  0.00    +0.000 OA
ENDROOT
TORSDOF 0
ENDMDL
