MODEL 1
REMARK VINA RESULT:    -1.996      0.000      0.000
REMARK INTER + INTRA:          -1.996
REMARK INTER:                  -1.996
REMARK INTRA:                   0.000
REMARK UNBOUND:                 0.000
REMARK  Name = CT1001562328
REMARK  0 active torsions:
REMARK  status: ('A' for Active; 'I' for Inactive)
REMARK                            x       y       z     vdW  Elec       q    Type
REMARK                         _______ _______ _______ _____ _____    ______ ____
ROOT
ATOM      1  C   UNL     1       2.649   2.182  -0.109  0.00  0.00    +0.000 C 
ATOM      2  O   UNL     1       3.304   1.832   0.844  0.00  0.00    +0.000 OA
ATOM      3  O   UNL     1       1.995   2.534  -1.062  0.00  0.00    +0.000 OA
ENDROOT
TORSDOF 0
ENDMDL
MODEL 2
REMARK VINA RESULT:    -1.989      0.032      1.973
REMARK INTER + INTRA:          -1.989
REMARK INTER:                  -1.989
REMARK INTRA:                   0.000
REMARK UNBOUND:                 0.000
REMARK  Name = CT1001562328
REMARK  0 active torsions:
REMARK  status: ('A' for Active; 'I' for Inactive)
REMARK                            x       y       z     vdW  Elec       q    Type
REMARK                         _______ _______ _______ _____ _____    ______ ____
ROOT
ATOM      1  C   UNL     1       2.666   2.201  -0.104  0.00  0.00    +0.000 C 
ATOM      2  O   UNL     1       1.994   2.560  -1.042  0.00  0.00    +0.000 OA
ATOM      3  O   UNL     1       3.337   1.843   0.835  0.00  0.00    +0.000 OA
ENDROOT
TORSDOF 0
ENDMDL
MODEL 3
REMARK VINA RESULT:    -1.861      2.555      3.059
REMARK INTER + INTRA:          -1.861
REMARK INTER:                  -1.861
REMARK INTRA:                   0.000
REMARK UNBOUND:                 0.000
REMARK  Name = CT1001562328
REMARK  0 active torsions:
REMARK  status: ('A' for Active; 'I' for Inactive)
REMARK                            x       y       z     vdW  Elec       q    Type
REMARK                         _______ _______ _______ _____ _____    ______ ____
ROOT
ATOM      1  C   UNL     1       1.843   4.151  -2.020  0.00  0.00    +0.000 C 
ATOM      2  O   UNL     1       1.726   2.974  -1.772  0.00  0.00    +0.000 OA
ATOM      3  O   UNL     1       1.960   5.328  -2.267  0.00  0.00    +0.000 OA
ENDROOT
TORSDOF 0
ENDMDL
MODEL 4
REMARK VINA RESULT:    -1.857      2.523      3.311
REMARK INTER + INTRA:          -1.857
REMARK INTER:                  -1.857
REMARK INTRA:                   0.000
REMARK UNBOUND:                 0.000
REMARK  Name = CT1001562328
REMARK  0 active torsions:
REMARK  status: ('A' for Active; 'I' for Inactive)
REMARK                            x       y       z     vdW  Elec       q    Type
REMARK                         _______ _______ _______ _____ _____    ______ ____
ROOT
ATOM      1  C   UNL     1       1.898   4.191  -2.004  0.00  0.00    +0.000 C 
ATOM      2  O   UNL     1       2.000   5.358  -2.299  0.00  0.00    +0.000 OA
ATOM      3  O   UNL     1       1.795   3.024  -1.707  0.00  0.00    +0.000 OA
ENDROOT
TORSDOF 0
ENDMDL
MODEL 5
REMARK VINA RESULT:    -1.778     12.770     13.081
REMARK INTER + INTRA:          -1.778
REMARK INTER:                  -1.778
REMARK INTRA:                   0.000
REMARK UNBOUND:                 0.000
REMARK  Name = CT1001562328
REMARK  0 active torsions:
REMARK  status: ('A' for Active; 'I' for Inactive)
REMARK                            x       y       z     vdW  Elec       q    Type
REMARK                         _______ _______ _______ _____ _____    ______ ____
ROOT
ATOM      1  C   UNL     1      -5.625   6.375  -9.180  0.00  0.00    +0.000 C 
ATOM      2  O   UNL     1      -5.622   5.623 -10.125  0.00  0.00    +0.000 OA
ATOM      3  O   UNL     1      -5.629   7.127  -8.234  0.00  0.00    +0.000 OA
ENDROOT
TORSDOF 0
ENDMDL
