MODEL 1
REMARK VINA RESULT:    -1.883      0.000      0.000
REMARK INTER + INTRA:          -1.883
REMARK INTER:                  -1.883
REMARK INTRA:                   0.000
REMARK UNBOUND:                 0.000
REMARK  Name = CT1001562328
REMARK  0 active torsions:
REMARK  status: ('A' for Active; 'I' for Inactive)
REMARK                            x       y       z     vdW  Elec       q    Type
REMARK                         _______ _______ _______ _____ _____    ______ ____
ROOT
ATOM      1  C   UNL     1      -1.207  -9.101  -2.004  0.00  0.00    +0.000 C 
ATOM      2  O   UNL     1      -1.848  -8.093  -1.821  0.00  0.00    +0.000 OA
ATOM      3  O   UNL     1      -0.567 -10.108  -2.188  0.00  0.00    +0.000 OA
ENDROOT
TORSDOF 0
ENDMDL
MODEL 2
REMARK VINA RESULT:    -1.882      0.073      1.973
REMARK INTER + INTRA:          -1.882
REMARK INTER:                  -1.882
REMARK INTRA:                   0.000
REMARK UNBOUND:                 0.000
REMARK  Name = CT1001562328
REMARK  0 active torsions:
REMARK  status: ('A' for Active; 'I' for Inactive)
REMARK                            x       y       z     vdW  Elec       q    Type
REMARK                         _______ _______ _______ _____ _____    ______ ____
ROOT
ATOM      1  C   UNL     1      -1.177  -9.081  -1.966  0.00  0.00    +0.000 C 
ATOM      2  O   UNL     1      -0.561 -10.112  -2.097  0.00  0.00    +0.000 OA
ATOM      3  O   UNL     1      -1.793  -8.050  -1.835  0.00  0.00    +0.000 OA
ENDROOT
TORSDOF 0
ENDMDL
MODEL 3
REMARK VINA RESULT:    -1.638     15.846     15.920
REMARK INTER + INTRA:          -1.638
REMARK INTER:                  -1.638
REMARK INTRA:                   0.000
REMARK UNBOUND:                 0.000
REMARK  Name = CT1001562328
REMARK  0 active torsions:
REMARK  status: ('A' for Active; 'I' for Inactive)
REMARK                            x       y       z     vdW  Elec       q    Type
REMARK                         _______ _______ _______ _____ _____    ______ ____
ROOT
ATOM      1  C   UNL     1       8.130   2.644   3.020  0.00  0.00    +0.000 C 
ATOM      2  O   UNL     1       8.923   2.434   2.133  0.00  0.00    +0.000 OA
ATOM      3  O   UNL     1       7.336   2.852   3.906  0.00  0.00    +0.000 OA
ENDROOT
TORSDOF 0
ENDMDL
MODEL 4
REMARK VINA RESULT:    -1.638     15.803     15.803
REMARK INTER + INTRA:          -1.638
REMARK INTER:                  -1.638
REMARK INTRA:                   0.000
REMARK UNBOUND:                 0.000
REMARK  Name = CT1001562328
REMARK  0 active torsions:
REMARK  status: ('A' for Active; 'I' for Inactive)
REMARK                            x       y       z     vdW  Elec       q    Type
REMARK                         _______ _______ _______ _____ _____    ______ ____
ROOT
ATOM      1  C   UNL     1       8.123   2.625   2.950  0.00  0.00    +0.000 C 
ATOM      2  O   UNL     1       7.286   2.909   3.774  0.00  0.00    +0.000 OA
ATOM      3  O   UNL     1       8.960   2.342   2.126  0.00  0.00    +0.000 OA
ENDROOT
TORSDOF 0
ENDMDL
MODEL 5
REMARK VINA RESULT:    -1.599     18.348     18.726
REMARK INTER + INTRA:          -1.599
REMARK INTER:                  -1.599
REMARK INTRA:                   0.000
REMARK UNBOUND:                 0.000
REMARK  Name = CT1001562328
REMARK  0 active torsions:
REMARK  status: ('A' for Active; 'I' for Inactive)
REMARK                            x       y       z     vdW  Elec       q    Type
REMARK                         _______ _______ _______ _____ _____    ______ ____
ROOT
ATOM      1  C   UNL     1      -5.068   9.024  -4.138  0.00  0.00    +0.000 C 
ATOM      2  O   UNL     1      -5.614   8.269  -4.906  0.00  0.00    +0.000 OA
ATOM      3  O   UNL     1      -4.522   9.781  -3.370  0.00  0.00    +0.000 OA
ENDROOT
TORSDOF 0
ENDMDL
