MODEL 1
REMARK VINA RESULT:    -1.882      0.000      0.000
REMARK INTER + INTRA:          -1.882
REMARK INTER:                  -1.882
REMARK INTRA:                   0.000
REMARK UNBOUND:                 0.000
REMARK  Name = CT1001562328
REMARK  0 active torsions:
REMARK  status: ('A' for Active; 'I' for Inactive)
REMARK                            x       y       z     vdW  Elec       q    Type
REMARK                         _______ _______ _______ _____ _____    ______ ____
ROOT
ATOM      1  C   UNL     1      -1.199  -9.070  -1.950  0.00  0.00    +0.000 C 
ATOM      2  O   UNL     1      -1.803  -8.030  -1.841  0.00  0.00    +0.000 OA
ATOM      3  O   UNL     1      -0.595 -10.111  -2.059  0.00  0.00    +0.000 OA
ENDROOT
TORSDOF 0
ENDMDL
MODEL 2
REMARK VINA RESULT:    -1.842      0.222      1.972
REMARK INTER + INTRA:          -1.842
REMARK INTER:                  -1.842
REMARK INTRA:                   0.000
REMARK UNBOUND:                 0.000
REMARK  Name = CT1001562328
REMARK  0 active torsions:
REMARK  status: ('A' for Active; 'I' for Inactive)
REMARK                            x       y       z     vdW  Elec       q    Type
REMARK                         _______ _______ _______ _____ _____    ______ ____
ROOT
ATOM      1  C   UNL     1      -1.118  -9.187  -1.905  0.00  0.00    +0.000 C 
ATOM      2  O   UNL     1      -0.357 -10.125  -1.939  0.00  0.00    +0.000 OA
ATOM      3  O   UNL     1      -1.879  -8.250  -1.873  0.00  0.00    +0.000 OA
ENDROOT
TORSDOF 0
ENDMDL
MODEL 3
REMARK VINA RESULT:    -1.639     15.788     15.788
REMARK INTER + INTRA:          -1.639
REMARK INTER:                  -1.639
REMARK INTRA:                   0.000
REMARK UNBOUND:                 0.000
REMARK  Name = CT1001562328
REMARK  0 active torsions:
REMARK  status: ('A' for Active; 'I' for Inactive)
REMARK                            x       y       z     vdW  Elec       q    Type
REMARK                         _______ _______ _______ _____ _____    ______ ____
ROOT
ATOM      1  C   UNL     1       8.137   2.639   2.970  0.00  0.00    +0.000 C 
ATOM      2  O   UNL     1       7.309   2.891   3.813  0.00  0.00    +0.000 OA
ATOM      3  O   UNL     1       8.963   2.386   2.126  0.00  0.00    +0.000 OA
ENDROOT
TORSDOF 0
ENDMDL
MODEL 4
REMARK VINA RESULT:    -1.635     15.771     15.841
REMARK INTER + INTRA:          -1.635
REMARK INTER:                  -1.635
REMARK INTRA:                   0.000
REMARK UNBOUND:                 0.000
REMARK  Name = CT1001562328
REMARK  0 active torsions:
REMARK  status: ('A' for Active; 'I' for Inactive)
REMARK                            x       y       z     vdW  Elec       q    Type
REMARK                         _______ _______ _______ _____ _____    ______ ____
ROOT
ATOM      1  C   UNL     1       8.131   2.621   2.966  0.00  0.00    +0.000 C 
ATOM      2  O   UNL     1       8.940   2.379   2.102  0.00  0.00    +0.000 OA
ATOM      3  O   UNL     1       7.322   2.861   3.831  0.00  0.00    +0.000 OA
ENDROOT
TORSDOF 0
ENDMDL
MODEL 5
REMARK VINA RESULT:    -1.620     18.323     18.738
REMARK INTER + INTRA:          -1.620
REMARK INTER:                  -1.620
REMARK INTRA:                   0.000
REMARK UNBOUND:                 0.000
REMARK  Name = CT1001562328
REMARK  0 active torsions:
REMARK  status: ('A' for Active; 'I' for Inactive)
REMARK                            x       y       z     vdW  Elec       q    Type
REMARK                         _______ _______ _______ _____ _____    ______ ____
ROOT
ATOM      1  C   UNL     1      -5.064   9.055  -4.172  0.00  0.00    +0.000 C 
ATOM      2  O   UNL     1      -5.622   8.245  -4.873  0.00  0.00    +0.000 OA
ATOM      3  O   UNL     1      -4.504   9.865  -3.471  0.00  0.00    +0.000 OA
ENDROOT
TORSDOF 0
ENDMDL
