MODEL 1
REMARK VINA RESULT:    -1.758      0.000      0.000
REMARK INTER + INTRA:          -1.758
REMARK INTER:                  -1.758
REMARK INTRA:                   0.000
REMARK UNBOUND:                 0.000
REMARK  Name = CT1001562328
REMARK  0 active torsions:
REMARK  status: ('A' for Active; 'I' for Inactive)
REMARK                            x       y       z     vdW  Elec       q    Type
REMARK                         _______ _______ _______ _____ _____    ______ ____
ROOT
ATOM      1  C   UNL     1      -1.178   7.493   8.034  0.00  0.00    +0.000 C 
ATOM      2  O   UNL     1      -0.911   7.006   6.961  0.00  0.00    +0.000 OA
ATOM      3  O   UNL     1      -1.446   7.980   9.106  0.00  0.00    +0.000 OA
ENDROOT
TORSDOF 0
ENDMDL
MODEL 2
REMARK VINA RESULT:    -1.703      0.182      1.973
REMARK INTER + INTRA:          -1.703
REMARK INTER:                  -1.703
REMARK INTRA:                   0.000
REMARK UNBOUND:                 0.000
REMARK  Name = CT1001562328
REMARK  0 active torsions:
REMARK  status: ('A' for Active; 'I' for Inactive)
REMARK                            x       y       z     vdW  Elec       q    Type
REMARK                         _______ _______ _______ _____ _____    ______ ____
ROOT
ATOM      1  C   UNL     1      -1.125   7.500   7.915  0.00  0.00    +0.000 C 
ATOM      2  O   UNL     1      -1.500   7.875   9.000  0.00  0.00    +0.000 OA
ATOM      3  O   UNL     1      -0.751   7.125   6.829  0.00  0.00    +0.000 OA
ENDROOT
TORSDOF 0
ENDMDL
MODEL 3
REMARK VINA RESULT:    -1.677      8.420      8.775
REMARK INTER + INTRA:          -1.677
REMARK INTER:                  -1.677
REMARK INTRA:                   0.000
REMARK UNBOUND:                 0.000
REMARK  Name = CT1001562328
REMARK  0 active torsions:
REMARK  status: ('A' for Active; 'I' for Inactive)
REMARK                            x       y       z     vdW  Elec       q    Type
REMARK                         _______ _______ _______ _____ _____    ______ ____
ROOT
ATOM      1  C   UNL     1       3.551   0.184   6.985  0.00  0.00    +0.000 C 
ATOM      2  O   UNL     1       4.198  -0.121   6.012  0.00  0.00    +0.000 OA
ATOM      3  O   UNL     1       2.904   0.490   7.959  0.00  0.00    +0.000 OA
ENDROOT
TORSDOF 0
ENDMDL
MODEL 4
REMARK VINA RESULT:    -1.667      8.375      8.938
REMARK INTER + INTRA:          -1.667
REMARK INTER:                  -1.667
REMARK INTRA:                   0.000
REMARK UNBOUND:                 0.000
REMARK  Name = CT1001562328
REMARK  0 active torsions:
REMARK  status: ('A' for Active; 'I' for Inactive)
REMARK                            x       y       z     vdW  Elec       q    Type
REMARK                         _______ _______ _______ _____ _____    ______ ____
ROOT
ATOM      1  C   UNL     1       3.515   0.217   6.962  0.00  0.00    +0.000 C 
ATOM      2  O   UNL     1       2.867   0.534   7.930  0.00  0.00    +0.000 OA
ATOM      3  O   UNL     1       4.165  -0.100   5.994  0.00  0.00    +0.000 OA
ENDROOT
TORSDOF 0
ENDMDL
MODEL 5
REMARK VINA RESULT:    -1.636      8.853      9.275
REMARK INTER + INTRA:          -1.636
REMARK INTER:                  -1.636
REMARK INTRA:                   0.000
REMARK UNBOUND:                 0.000
REMARK  Name = CT1001562328
REMARK  0 active torsions:
REMARK  status: ('A' for Active; 'I' for Inactive)
REMARK                            x       y       z     vdW  Elec       q    Type
REMARK                         _______ _______ _______ _____ _____    ______ ____
ROOT
ATOM      1  C   UNL     1       4.072   0.069   6.338  0.00  0.00    +0.000 C 
ATOM      2  O   UNL     1       4.804  -0.771   5.872  0.00  0.00    +0.000 OA
ATOM      3  O   UNL     1       3.338   0.909   6.803  0.00  0.00    +0.000 OA
ENDROOT
TORSDOF 0
ENDMDL
