MODEL 1
REMARK VINA RESULT:    -1.816      0.000      0.000
REMARK INTER + INTRA:          -1.816
REMARK INTER:                  -1.816
REMARK INTRA:                   0.000
REMARK UNBOUND:                 0.000
REMARK  Name = CT1001562328
REMARK  0 active torsions:
REMARK  status: ('A' for Active; 'I' for Inactive)
REMARK                            x       y       z     vdW  Elec       q    Type
REMARK                         _______ _______ _______ _____ _____    ______ ____
ROOT
ATOM      1  C   UNL     1       9.434  -1.507   4.550  0.00  0.00    +0.000 C 
ATOM      2  O   UNL     1       9.647  -2.387   3.751  0.00  0.00    +0.000 OA
ATOM      3  O   UNL     1       9.221  -0.628   5.351  0.00  0.00    +0.000 OA
ENDROOT
TORSDOF 0
ENDMDL
MODEL 2
REMARK VINA RESULT:    -1.816      0.048      1.973
REMARK INTER + INTRA:          -1.816
REMARK INTER:                  -1.816
REMARK INTRA:                   0.000
REMARK UNBOUND:                 0.000
REMARK  Name = CT1001562328
REMARK  0 active torsions:
REMARK  status: ('A' for Active; 'I' for Inactive)
REMARK                            x       y       z     vdW  Elec       q    Type
REMARK                         _______ _______ _______ _____ _____    ______ ____
ROOT
ATOM      1  C   UNL     1       9.444  -1.531   4.570  0.00  0.00    +0.000 C 
ATOM      2  O   UNL     1       9.206  -0.679   5.393  0.00  0.00    +0.000 OA
ATOM      3  O   UNL     1       9.681  -2.384   3.748  0.00  0.00    +0.000 OA
ENDROOT
TORSDOF 0
ENDMDL
MODEL 3
REMARK VINA RESULT:    -1.752     20.515     20.640
REMARK INTER + INTRA:          -1.752
REMARK INTER:                  -1.752
REMARK INTRA:                   0.000
REMARK UNBOUND:                 0.000
REMARK  Name = CT1001562328
REMARK  0 active torsions:
REMARK  status: ('A' for Active; 'I' for Inactive)
REMARK                            x       y       z     vdW  Elec       q    Type
REMARK                         _______ _______ _______ _____ _____    ______ ____
ROOT
ATOM      1  C   UNL     1      -5.513   2.814  -8.936  0.00  0.00    +0.000 C 
ATOM      2  O   UNL     1      -4.910   2.225  -8.071  0.00  0.00    +0.000 OA
ATOM      3  O   UNL     1      -6.117   3.402  -9.801  0.00  0.00    +0.000 OA
ENDROOT
TORSDOF 0
ENDMDL
MODEL 4
REMARK VINA RESULT:    -1.744     20.616     20.739
REMARK INTER + INTRA:          -1.744
REMARK INTER:                  -1.744
REMARK INTRA:                   0.000
REMARK UNBOUND:                 0.000
REMARK  Name = CT1001562328
REMARK  0 active torsions:
REMARK  status: ('A' for Active; 'I' for Inactive)
REMARK                            x       y       z     vdW  Elec       q    Type
REMARK                         _______ _______ _______ _____ _____    ______ ____
ROOT
ATOM      1  C   UNL     1      -5.553   2.834  -9.042  0.00  0.00    +0.000 C 
ATOM      2  O   UNL     1      -6.191   3.401  -9.897  0.00  0.00    +0.000 OA
ATOM      3  O   UNL     1      -4.914   2.269  -8.187  0.00  0.00    +0.000 OA
ENDROOT
TORSDOF 0
ENDMDL
MODEL 5
REMARK VINA RESULT:    -1.702      1.607      1.936
REMARK INTER + INTRA:          -1.702
REMARK INTER:                  -1.702
REMARK INTRA:                   0.000
REMARK UNBOUND:                 0.000
REMARK  Name = CT1001562328
REMARK  0 active torsions:
REMARK  status: ('A' for Active; 'I' for Inactive)
REMARK                            x       y       z     vdW  Elec       q    Type
REMARK                         _______ _______ _______ _____ _____    ______ ____
ROOT
ATOM      1  C   UNL     1       8.996   0.033   5.550  0.00  0.00    +0.000 C 
ATOM      2  O   UNL     1       9.371  -1.063   5.207  0.00  0.00    +0.000 OA
ATOM      3  O   UNL     1       8.619   1.128   5.893  0.00  0.00    +0.000 OA
ENDROOT
TORSDOF 0
ENDMDL
