MODEL 1
REMARK VINA RESULT:    -1.770      0.000      0.000
REMARK INTER + INTRA:          -1.770
REMARK INTER:                  -1.770
REMARK INTRA:                   0.000
REMARK UNBOUND:                 0.000
REMARK  Name = CT1001562328
REMARK  0 active torsions:
REMARK  status: ('A' for Active; 'I' for Inactive)
REMARK                            x       y       z     vdW  Elec       q    Type
REMARK                         _______ _______ _______ _____ _____    ______ ____
ROOT
ATOM      1  C   UNL     1       7.817  -0.696  -0.231  0.00  0.00    +0.000 C 
ATOM      2  O   UNL     1       8.101   0.437   0.078  0.00  0.00    +0.000 OA
ATOM      3  O   UNL     1       7.533  -1.829  -0.540  0.00  0.00    +0.000 OA
ENDROOT
TORSDOF 0
ENDMDL
MODEL 2
REMARK VINA RESULT:    -1.757      0.049      1.973
REMARK INTER + INTRA:          -1.757
REMARK INTER:                  -1.757
REMARK INTRA:                   0.000
REMARK UNBOUND:                 0.000
REMARK  Name = CT1001562328
REMARK  0 active torsions:
REMARK  status: ('A' for Active; 'I' for Inactive)
REMARK                            x       y       z     vdW  Elec       q    Type
REMARK                         _______ _______ _______ _____ _____    ______ ____
ROOT
ATOM      1  C   UNL     1       7.826  -0.708  -0.275  0.00  0.00    +0.000 C 
ATOM      2  O   UNL     1       7.555  -1.847  -0.573  0.00  0.00    +0.000 OA
ATOM      3  O   UNL     1       8.099   0.431   0.023  0.00  0.00    +0.000 OA
ENDROOT
TORSDOF 0
ENDMDL
MODEL 3
REMARK VINA RESULT:    -1.701      1.243      1.243
REMARK INTER + INTRA:          -1.701
REMARK INTER:                  -1.701
REMARK INTRA:                   0.000
REMARK UNBOUND:                 0.000
REMARK  Name = CT1001562328
REMARK  0 active torsions:
REMARK  status: ('A' for Active; 'I' for Inactive)
REMARK                            x       y       z     vdW  Elec       q    Type
REMARK                         _______ _______ _______ _____ _____    ______ ____
ROOT
ATOM      1  C   UNL     1       8.248  -1.234   0.184  0.00  0.00    +0.000 C 
ATOM      2  O   UNL     1       7.797  -0.271  -0.389  0.00  0.00    +0.000 OA
ATOM      3  O   UNL     1       8.699  -2.197   0.757  0.00  0.00    +0.000 OA
ENDROOT
TORSDOF 0
ENDMDL
MODEL 4
REMARK VINA RESULT:    -1.695      1.690      1.897
REMARK INTER + INTRA:          -1.695
REMARK INTER:                  -1.695
REMARK INTRA:                   0.000
REMARK UNBOUND:                 0.000
REMARK  Name = CT1001562328
REMARK  0 active torsions:
REMARK  status: ('A' for Active; 'I' for Inactive)
REMARK                            x       y       z     vdW  Elec       q    Type
REMARK                         _______ _______ _______ _____ _____    ______ ____
ROOT
ATOM      1  C   UNL     1       8.469  -1.861   0.389  0.00  0.00    +0.000 C 
ATOM      2  O   UNL     1       9.196  -1.965   1.348  0.00  0.00    +0.000 OA
ATOM      3  O   UNL     1       7.743  -1.756  -0.571  0.00  0.00    +0.000 OA
ENDROOT
TORSDOF 0
ENDMDL
MODEL 5
REMARK VINA RESULT:    -1.679      7.472      7.837
REMARK INTER + INTRA:          -1.679
REMARK INTER:                  -1.679
REMARK INTRA:                   0.000
REMARK UNBOUND:                 0.000
REMARK  Name = CT1001562328
REMARK  0 active torsions:
REMARK  status: ('A' for Active; 'I' for Inactive)
REMARK                            x       y       z     vdW  Elec       q    Type
REMARK                         _______ _______ _______ _____ _____    ______ ____
ROOT
ATOM      1  C   UNL     1       2.411   4.843  -0.598  0.00  0.00    +0.000 C 
ATOM      2  O   UNL     1       1.723   5.135   0.351  0.00  0.00    +0.000 OA
ATOM      3  O   UNL     1       3.098   4.552  -1.549  0.00  0.00    +0.000 OA
ENDROOT
TORSDOF 0
ENDMDL
