MODEL 1
REMARK VINA RESULT:    -1.768      0.000      0.000
REMARK INTER + INTRA:          -1.768
REMARK INTER:                  -1.768
REMARK INTRA:                   0.000
REMARK UNBOUND:                 0.000
REMARK  Name = CT1001562328
REMARK  0 active torsions:
REMARK  status: ('A' for Active; 'I' for Inactive)
REMARK                            x       y       z     vdW  Elec       q    Type
REMARK                         _______ _______ _______ _____ _____    ______ ____
ROOT
ATOM      1  C   UNL     1       8.127  -7.292   4.084  0.00  0.00    +0.000 C 
ATOM      2  O   UNL     1       8.843  -7.904   4.840  0.00  0.00    +0.000 OA
ATOM      3  O   UNL     1       7.409  -6.681   3.327  0.00  0.00    +0.000 OA
ENDROOT
TORSDOF 0
ENDMDL
MODEL 2
REMARK VINA RESULT:    -1.766      3.661      4.271
REMARK INTER + INTRA:          -1.766
REMARK INTER:                  -1.766
REMARK INTRA:                   0.000
REMARK UNBOUND:                 0.000
REMARK  Name = CT1001562328
REMARK  0 active torsions:
REMARK  status: ('A' for Active; 'I' for Inactive)
REMARK                            x       y       z     vdW  Elec       q    Type
REMARK                         _______ _______ _______ _____ _____    ______ ____
ROOT
ATOM      1  C   UNL     1       9.112  -5.998   0.585  0.00  0.00    +0.000 C 
ATOM      2  O   UNL     1       8.985  -4.847   0.241  0.00  0.00    +0.000 OA
ATOM      3  O   UNL     1       9.238  -7.150   0.929  0.00  0.00    +0.000 OA
ENDROOT
TORSDOF 0
ENDMDL
MODEL 3
REMARK VINA RESULT:    -1.764      0.027      1.973
REMARK INTER + INTRA:          -1.764
REMARK INTER:                  -1.764
REMARK INTRA:                   0.000
REMARK UNBOUND:                 0.000
REMARK  Name = CT1001562328
REMARK  0 active torsions:
REMARK  status: ('A' for Active; 'I' for Inactive)
REMARK                            x       y       z     vdW  Elec       q    Type
REMARK                         _______ _______ _______ _____ _____    ______ ____
ROOT
ATOM      1  C   UNL     1       8.148  -7.291   4.098  0.00  0.00    +0.000 C 
ATOM      2  O   UNL     1       7.430  -6.675   3.346  0.00  0.00    +0.000 OA
ATOM      3  O   UNL     1       8.867  -7.907   4.848  0.00  0.00    +0.000 OA
ENDROOT
TORSDOF 0
ENDMDL
MODEL 4
REMARK VINA RESULT:    -1.755      3.561      3.883
REMARK INTER + INTRA:          -1.755
REMARK INTER:                  -1.755
REMARK INTRA:                   0.000
REMARK UNBOUND:                 0.000
REMARK  Name = CT1001562328
REMARK  0 active torsions:
REMARK  status: ('A' for Active; 'I' for Inactive)
REMARK                            x       y       z     vdW  Elec       q    Type
REMARK                         _______ _______ _______ _____ _____    ______ ____
ROOT
ATOM      1  C   UNL     1       9.037  -5.943   0.652  0.00  0.00    +0.000 C 
ATOM      2  O   UNL     1       9.002  -7.086   1.041  0.00  0.00    +0.000 OA
ATOM      3  O   UNL     1       9.070  -4.800   0.263  0.00  0.00    +0.000 OA
ENDROOT
TORSDOF 0
ENDMDL
MODEL 5
REMARK VINA RESULT:    -1.721      2.926      3.529
REMARK INTER + INTRA:          -1.721
REMARK INTER:                  -1.721
REMARK INTRA:                   0.000
REMARK UNBOUND:                 0.000
REMARK  Name = CT1001562328
REMARK  0 active torsions:
REMARK  status: ('A' for Active; 'I' for Inactive)
REMARK                            x       y       z     vdW  Elec       q    Type
REMARK                         _______ _______ _______ _____ _____    ______ ____
ROOT
ATOM      1  C   UNL     1       9.754  -8.721   6.287  0.00  0.00    +0.000 C 
ATOM      2  O   UNL     1      10.069  -8.615   5.125  0.00  0.00    +0.000 OA
ATOM      3  O   UNL     1       9.441  -8.828   7.449  0.00  0.00    +0.000 OA
ENDROOT
TORSDOF 0
ENDMDL
