MODEL 1
REMARK VINA RESULT:    -1.803      0.000      0.000
REMARK INTER + INTRA:          -1.803
REMARK INTER:                  -1.803
REMARK INTRA:                   0.000
REMARK UNBOUND:                 0.000
REMARK  Name = CT1001562328
REMARK  0 active torsions:
REMARK  status: ('A' for Active; 'I' for Inactive)
REMARK                            x       y       z     vdW  Elec       q    Type
REMARK                         _______ _______ _______ _____ _____    ______ ____
ROOT
ATOM      1  C   UNL     1      -0.929  -7.722  -4.672  0.00  0.00    +0.000 C 
ATOM      2  O   UNL     1      -0.367  -7.233  -5.623  0.00  0.00    +0.000 OA
ATOM      3  O   UNL     1      -1.492  -8.211  -3.722  0.00  0.00    +0.000 OA
ENDROOT
TORSDOF 0
ENDMDL
MODEL 2
REMARK VINA RESULT:    -1.799      0.054      1.973
REMARK INTER + INTRA:          -1.799
REMARK INTER:                  -1.799
REMARK INTRA:                   0.000
REMARK UNBOUND:                 0.000
REMARK  Name = CT1001562328
REMARK  0 active torsions:
REMARK  status: ('A' for Active; 'I' for Inactive)
REMARK                            x       y       z     vdW  Elec       q    Type
REMARK                         _______ _______ _______ _____ _____    ______ ____
ROOT
ATOM      1  C   UNL     1      -0.916  -7.742  -4.712  0.00  0.00    +0.000 C 
ATOM      2  O   UNL     1      -1.503  -8.242  -3.782  0.00  0.00    +0.000 OA
ATOM      3  O   UNL     1      -0.328  -7.240  -5.641  0.00  0.00    +0.000 OA
ENDROOT
TORSDOF 0
ENDMDL
MODEL 3
REMARK VINA RESULT:    -1.765     15.409     15.848
REMARK INTER + INTRA:          -1.765
REMARK INTER:                  -1.765
REMARK INTRA:                   0.000
REMARK UNBOUND:                 0.000
REMARK  Name = CT1001562328
REMARK  0 active torsions:
REMARK  status: ('A' for Active; 'I' for Inactive)
REMARK                            x       y       z     vdW  Elec       q    Type
REMARK                         _______ _______ _______ _____ _____    ______ ____
ROOT
ATOM      1  C   UNL     1      -2.990  -0.402   9.184  0.00  0.00    +0.000 C 
ATOM      2  O   UNL     1      -2.123  -1.152   8.803  0.00  0.00    +0.000 OA
ATOM      3  O   UNL     1      -3.855   0.350   9.566  0.00  0.00    +0.000 OA
ENDROOT
TORSDOF 0
ENDMDL
MODEL 4
REMARK VINA RESULT:    -1.659     12.177     12.345
REMARK INTER + INTRA:          -1.659
REMARK INTER:                  -1.659
REMARK INTRA:                   0.000
REMARK UNBOUND:                 0.000
REMARK  Name = CT1001562328
REMARK  0 active torsions:
REMARK  status: ('A' for Active; 'I' for Inactive)
REMARK                            x       y       z     vdW  Elec       q    Type
REMARK                         _______ _______ _______ _____ _____    ______ ____
ROOT
ATOM      1  C   UNL     1       4.652  -3.928   5.598  0.00  0.00    +0.000 C 
ATOM      2  O   UNL     1       5.404  -4.764   5.156  0.00  0.00    +0.000 OA
ATOM      3  O   UNL     1       3.901  -3.091   6.040  0.00  0.00    +0.000 OA
ENDROOT
TORSDOF 0
ENDMDL
MODEL 5
REMARK VINA RESULT:    -1.654     12.183     12.395
REMARK INTER + INTRA:          -1.654
REMARK INTER:                  -1.654
REMARK INTRA:                   0.000
REMARK UNBOUND:                 0.000
REMARK  Name = CT1001562328
REMARK  0 active torsions:
REMARK  status: ('A' for Active; 'I' for Inactive)
REMARK                            x       y       z     vdW  Elec       q    Type
REMARK                         _______ _______ _______ _____ _____    ______ ____
ROOT
ATOM      1  C   UNL     1       4.643  -3.953   5.612  0.00  0.00    +0.000 C 
ATOM      2  O   UNL     1       3.863  -3.155   6.076  0.00  0.00    +0.000 OA
ATOM      3  O   UNL     1       5.423  -4.750   5.150  0.00  0.00    +0.000 OA
ENDROOT
TORSDOF 0
ENDMDL
