MODEL 1
REMARK VINA RESULT:    -2.025      0.000      0.000
REMARK INTER + INTRA:          -2.025
REMARK INTER:                  -2.025
REMARK INTRA:                   0.000
REMARK UNBOUND:                 0.000
REMARK  Name = CT1001562328
REMARK  0 active torsions:
REMARK  status: ('A' for Active; 'I' for Inactive)
REMARK                            x       y       z     vdW  Elec       q    Type
REMARK                         _______ _______ _______ _____ _____    ______ ____
ROOT
ATOM      1  C   UNL     1      -5.942  -8.631  -3.360  0.00  0.00    +0.000 C 
ATOM      2  O   UNL     1      -4.897  -8.130  -3.019  0.00  0.00    +0.000 OA
ATOM      3  O   UNL     1      -6.987  -9.132  -3.701  0.00  0.00    +0.000 OA
ENDROOT
TORSDOF 0
ENDMDL
MODEL 2
REMARK VINA RESULT:    -2.025      0.020      1.973
REMARK INTER + INTRA:          -2.025
REMARK INTER:                  -2.025
REMARK INTRA:                   0.000
REMARK UNBOUND:                 0.000
REMARK  Name = CT1001562328
REMARK  0 active torsions:
REMARK  status: ('A' for Active; 'I' for Inactive)
REMARK                            x       y       z     vdW  Elec       q    Type
REMARK                         _______ _______ _______ _____ _____    ______ ____
ROOT
ATOM      1  C   UNL     1      -5.941  -8.645  -3.353  0.00  0.00    +0.000 C 
ATOM      2  O   UNL     1      -6.992  -9.132  -3.697  0.00  0.00    +0.000 OA
ATOM      3  O   UNL     1      -4.891  -8.157  -3.008  0.00  0.00    +0.000 OA
ENDROOT
TORSDOF 0
ENDMDL
MODEL 3
REMARK VINA RESULT:    -1.704      9.785     10.263
REMARK INTER + INTRA:          -1.704
REMARK INTER:                  -1.704
REMARK INTRA:                   0.000
REMARK UNBOUND:                 0.000
REMARK  Name = CT1001562328
REMARK  0 active torsions:
REMARK  status: ('A' for Active; 'I' for Inactive)
REMARK                            x       y       z     vdW  Elec       q    Type
REMARK                         _______ _______ _______ _____ _____    ______ ____
ROOT
ATOM      1  C   UNL     1      -3.664  -7.931   6.450  0.00  0.00    +0.000 C 
ATOM      2  O   UNL     1      -4.645  -7.646   5.807  0.00  0.00    +0.000 OA
ATOM      3  O   UNL     1      -2.681  -8.217   7.093  0.00  0.00    +0.000 OA
ENDROOT
TORSDOF 0
ENDMDL
MODEL 4
REMARK VINA RESULT:    -1.700      9.769     10.102
REMARK INTER + INTRA:          -1.700
REMARK INTER:                  -1.700
REMARK INTRA:                   0.000
REMARK UNBOUND:                 0.000
REMARK  Name = CT1001562328
REMARK  0 active torsions:
REMARK  status: ('A' for Active; 'I' for Inactive)
REMARK                            x       y       z     vdW  Elec       q    Type
REMARK                         _______ _______ _______ _____ _____    ______ ____
ROOT
ATOM      1  C   UNL     1      -3.671  -7.918   6.434  0.00  0.00    +0.000 C 
ATOM      2  O   UNL     1      -2.687  -8.202   7.074  0.00  0.00    +0.000 OA
ATOM      3  O   UNL     1      -4.656  -7.634   5.795  0.00  0.00    +0.000 OA
ENDROOT
TORSDOF 0
ENDMDL
MODEL 5
REMARK VINA RESULT:    -1.660      9.540     10.016
REMARK INTER + INTRA:          -1.660
REMARK INTER:                  -1.660
REMARK INTRA:                   0.000
REMARK UNBOUND:                 0.000
REMARK  Name = CT1001562328
REMARK  0 active torsions:
REMARK  status: ('A' for Active; 'I' for Inactive)
REMARK                            x       y       z     vdW  Elec       q    Type
REMARK                         _______ _______ _______ _____ _____    ______ ____
ROOT
ATOM      1  C   UNL     1      -3.368  -8.543   6.148  0.00  0.00    +0.000 C 
ATOM      2  O   UNL     1      -3.721  -9.174   5.180  0.00  0.00    +0.000 OA
ATOM      3  O   UNL     1      -3.014  -7.912   7.115  0.00  0.00    +0.000 OA
ENDROOT
TORSDOF 0
ENDMDL
