MODEL 1
REMARK VINA RESULT:    -1.834      0.000      0.000
REMARK INTER + INTRA:          -1.834
REMARK INTER:                  -1.834
REMARK INTRA:                   0.000
REMARK UNBOUND:                 0.000
REMARK  Name = CT1001562328
REMARK  0 active torsions:
REMARK  status: ('A' for Active; 'I' for Inactive)
REMARK                            x       y       z     vdW  Elec       q    Type
REMARK                         _______ _______ _______ _____ _____    ______ ____
ROOT
ATOM      1  C   UNL     1       1.745   6.153   9.136  0.00  0.00    +0.000 C 
ATOM      2  O   UNL     1       2.151   6.922   8.297  0.00  0.00    +0.000 OA
ATOM      3  O   UNL     1       1.339   5.384   9.975  0.00  0.00    +0.000 OA
ENDROOT
TORSDOF 0
ENDMDL
MODEL 2
REMARK VINA RESULT:    -1.818      0.165      1.978
REMARK INTER + INTRA:          -1.818
REMARK INTER:                  -1.818
REMARK INTRA:                   0.000
REMARK UNBOUND:                 0.000
REMARK  Name = CT1001562328
REMARK  0 active torsions:
REMARK  status: ('A' for Active; 'I' for Inactive)
REMARK                            x       y       z     vdW  Elec       q    Type
REMARK                         _______ _______ _______ _____ _____    ______ ____
ROOT
ATOM      1  C   UNL     1       1.857   6.217   9.048  0.00  0.00    +0.000 C 
ATOM      2  O   UNL     1       1.441   5.403   9.838  0.00  0.00    +0.000 OA
ATOM      3  O   UNL     1       2.272   7.032   8.259  0.00  0.00    +0.000 OA
ENDROOT
TORSDOF 0
ENDMDL
MODEL 3
REMARK VINA RESULT:    -1.810      9.998     10.578
REMARK INTER + INTRA:          -1.810
REMARK INTER:                  -1.810
REMARK INTRA:                   0.000
REMARK UNBOUND:                 0.000
REMARK  Name = CT1001562328
REMARK  0 active torsions:
REMARK  status: ('A' for Active; 'I' for Inactive)
REMARK                            x       y       z     vdW  Elec       q    Type
REMARK                         _______ _______ _______ _____ _____    ______ ____
ROOT
ATOM      1  C   UNL     1       3.187  -4.144   9.749  0.00  0.00    +0.000 C 
ATOM      2  O   UNL     1       3.376  -5.276  10.125  0.00  0.00    +0.000 OA
ATOM      3  O   UNL     1       2.999  -3.011   9.374  0.00  0.00    +0.000 OA
ENDROOT
TORSDOF 0
ENDMDL
MODEL 4
REMARK VINA RESULT:    -1.760     15.405     15.648
REMARK INTER + INTRA:          -1.760
REMARK INTER:                  -1.760
REMARK INTRA:                   0.000
REMARK UNBOUND:                 0.000
REMARK  Name = CT1001562328
REMARK  0 active torsions:
REMARK  status: ('A' for Active; 'I' for Inactive)
REMARK                            x       y       z     vdW  Elec       q    Type
REMARK                         _______ _______ _______ _____ _____    ______ ____
ROOT
ATOM      1  C   UNL     1      -7.327   4.671  -3.383  0.00  0.00    +0.000 C 
ATOM      2  O   UNL     1      -8.066   3.760  -3.092  0.00  0.00    +0.000 OA
ATOM      3  O   UNL     1      -6.590   5.583  -3.674  0.00  0.00    +0.000 OA
ENDROOT
TORSDOF 0
ENDMDL
MODEL 5
REMARK VINA RESULT:    -1.757     15.401     15.503
REMARK INTER + INTRA:          -1.757
REMARK INTER:                  -1.757
REMARK INTRA:                   0.000
REMARK UNBOUND:                 0.000
REMARK  Name = CT1001562328
REMARK  0 active torsions:
REMARK  status: ('A' for Active; 'I' for Inactive)
REMARK                            x       y       z     vdW  Elec       q    Type
REMARK                         _______ _______ _______ _____ _____    ______ ____
ROOT
ATOM      1  C   UNL     1      -7.211   4.636  -3.416  0.00  0.00    +0.000 C 
ATOM      2  O   UNL     1      -6.525   5.579  -3.730  0.00  0.00    +0.000 OA
ATOM      3  O   UNL     1      -7.898   3.693  -3.103  0.00  0.00    +0.000 OA
ENDROOT
TORSDOF 0
ENDMDL
