MODEL 1
REMARK VINA RESULT:    -2.025      0.000      0.000
REMARK INTER + INTRA:          -2.025
REMARK INTER:                  -2.025
REMARK INTRA:                   0.000
REMARK UNBOUND:                 0.000
REMARK  Name = CT1001562328
REMARK  0 active torsions:
REMARK  status: ('A' for Active; 'I' for Inactive)
REMARK                            x       y       z     vdW  Elec       q    Type
REMARK                         _______ _______ _______ _____ _____    ______ ____
ROOT
ATOM      1  C   UNL     1      -5.946  -8.627  -3.361  0.00  0.00    +0.000 C 
ATOM      2  O   UNL     1      -6.991  -9.129  -3.701  0.00  0.00    +0.000 OA
ATOM      3  O   UNL     1      -4.902  -8.123  -3.021  0.00  0.00    +0.000 OA
ENDROOT
TORSDOF 0
ENDMDL
MODEL 2
REMARK VINA RESULT:    -2.024      0.009      1.973
REMARK INTER + INTRA:          -2.024
REMARK INTER:                  -2.024
REMARK INTRA:                   0.000
REMARK UNBOUND:                 0.000
REMARK  Name = CT1001562328
REMARK  0 active torsions:
REMARK  status: ('A' for Active; 'I' for Inactive)
REMARK                            x       y       z     vdW  Elec       q    Type
REMARK                         _______ _______ _______ _____ _____    ______ ____
ROOT
ATOM      1  C   UNL     1      -5.939  -8.626  -3.357  0.00  0.00    +0.000 C 
ATOM      2  O   UNL     1      -4.894  -8.124  -3.018  0.00  0.00    +0.000 OA
ATOM      3  O   UNL     1      -6.985  -9.127  -3.695  0.00  0.00    +0.000 OA
ENDROOT
TORSDOF 0
ENDMDL
MODEL 3
REMARK VINA RESULT:    -1.718      9.629      9.955
REMARK INTER + INTRA:          -1.718
REMARK INTER:                  -1.718
REMARK INTRA:                   0.000
REMARK UNBOUND:                 0.000
REMARK  Name = CT1001562328
REMARK  0 active torsions:
REMARK  status: ('A' for Active; 'I' for Inactive)
REMARK                            x       y       z     vdW  Elec       q    Type
REMARK                         _______ _______ _______ _____ _____    ______ ____
ROOT
ATOM      1  C   UNL     1      -3.847  -7.813   6.312  0.00  0.00    +0.000 C 
ATOM      2  O   UNL     1      -4.864  -7.499   5.741  0.00  0.00    +0.000 OA
ATOM      3  O   UNL     1      -2.830  -8.128   6.882  0.00  0.00    +0.000 OA
ENDROOT
TORSDOF 0
ENDMDL
MODEL 4
REMARK VINA RESULT:    -1.702      9.817     10.290
REMARK INTER + INTRA:          -1.702
REMARK INTER:                  -1.702
REMARK INTRA:                   0.000
REMARK UNBOUND:                 0.000
REMARK  Name = CT1001562328
REMARK  0 active torsions:
REMARK  status: ('A' for Active; 'I' for Inactive)
REMARK                            x       y       z     vdW  Elec       q    Type
REMARK                         _______ _______ _______ _____ _____    ______ ____
ROOT
ATOM      1  C   UNL     1      -3.721  -7.931   6.489  0.00  0.00    +0.000 C 
ATOM      2  O   UNL     1      -2.776  -8.162   7.206  0.00  0.00    +0.000 OA
ATOM      3  O   UNL     1      -4.666  -7.701   5.772  0.00  0.00    +0.000 OA
ENDROOT
TORSDOF 0
ENDMDL
MODEL 5
REMARK VINA RESULT:    -1.663      9.370      9.556
REMARK INTER + INTRA:          -1.663
REMARK INTER:                  -1.663
REMARK INTRA:                   0.000
REMARK UNBOUND:                 0.000
REMARK  Name = CT1001562328
REMARK  0 active torsions:
REMARK  status: ('A' for Active; 'I' for Inactive)
REMARK                            x       y       z     vdW  Elec       q    Type
REMARK                         _______ _______ _______ _____ _____    ______ ____
ROOT
ATOM      1  C   UNL     1      -4.395  -7.627   5.987  0.00  0.00    +0.000 C 
ATOM      2  O   UNL     1      -5.511  -7.239   5.735  0.00  0.00    +0.000 OA
ATOM      3  O   UNL     1      -3.279  -8.014   6.238  0.00  0.00    +0.000 OA
ENDROOT
TORSDOF 0
ENDMDL
