MODEL 1
REMARK VINA RESULT:    -1.898      0.000      0.000
REMARK INTER + INTRA:          -1.898
REMARK INTER:                  -1.898
REMARK INTRA:                   0.000
REMARK UNBOUND:                 0.000
REMARK  Name = CT1001562328
REMARK  0 active torsions:
REMARK  status: ('A' for Active; 'I' for Inactive)
REMARK                            x       y       z     vdW  Elec       q    Type
REMARK                         _______ _______ _______ _____ _____    ______ ____
ROOT
ATOM      1  C   UNL     1      -6.986   2.885   8.523  0.00  0.00    +0.000 C 
ATOM      2  O   UNL     1      -6.831   2.644   7.349  0.00  0.00    +0.000 OA
ATOM      3  O   UNL     1      -7.142   3.127   9.696  0.00  0.00    +0.000 OA
ENDROOT
TORSDOF 0
ENDMDL
MODEL 2
REMARK VINA RESULT:    -1.898      0.000      1.973
REMARK INTER + INTRA:          -1.898
REMARK INTER:                  -1.898
REMARK INTRA:                   0.000
REMARK UNBOUND:                 0.000
REMARK  Name = CT1001562328
REMARK  0 active torsions:
REMARK  status: ('A' for Active; 'I' for Inactive)
REMARK                            x       y       z     vdW  Elec       q    Type
REMARK                         _______ _______ _______ _____ _____    ______ ____
ROOT
ATOM      1  C   UNL     1      -6.986   2.885   8.523  0.00  0.00    +0.000 C 
ATOM      2  O   UNL     1      -7.142   3.126   9.696  0.00  0.00    +0.000 OA
ATOM      3  O   UNL     1      -6.831   2.644   7.349  0.00  0.00    +0.000 OA
ENDROOT
TORSDOF 0
ENDMDL
MODEL 3
REMARK VINA RESULT:    -1.848      9.116      9.597
REMARK INTER + INTRA:          -1.848
REMARK INTER:                  -1.848
REMARK INTRA:                   0.000
REMARK UNBOUND:                 0.000
REMARK  Name = CT1001562328
REMARK  0 active torsions:
REMARK  status: ('A' for Active; 'I' for Inactive)
REMARK                            x       y       z     vdW  Elec       q    Type
REMARK                         _______ _______ _______ _____ _____    ______ ____
ROOT
ATOM      1  C   UNL     1      -2.347   9.005   3.073  0.00  0.00    +0.000 C 
ATOM      2  O   UNL     1      -2.104   8.519   4.152  0.00  0.00    +0.000 OA
ATOM      3  O   UNL     1      -2.590   9.491   1.994  0.00  0.00    +0.000 OA
ENDROOT
TORSDOF 0
ENDMDL
MODEL 4
REMARK VINA RESULT:    -1.848      9.091      9.413
REMARK INTER + INTRA:          -1.848
REMARK INTER:                  -1.848
REMARK INTRA:                   0.000
REMARK UNBOUND:                 0.000
REMARK  Name = CT1001562328
REMARK  0 active torsions:
REMARK  status: ('A' for Active; 'I' for Inactive)
REMARK                            x       y       z     vdW  Elec       q    Type
REMARK                         _______ _______ _______ _____ _____    ______ ____
ROOT
ATOM      1  C   UNL     1      -2.346   8.998   3.114  0.00  0.00    +0.000 C 
ATOM      2  O   UNL     1      -2.519   9.508   2.032  0.00  0.00    +0.000 OA
ATOM      3  O   UNL     1      -2.172   8.489   4.196  0.00  0.00    +0.000 OA
ENDROOT
TORSDOF 0
ENDMDL
MODEL 5
REMARK VINA RESULT:    -1.795      8.443      8.831
REMARK INTER + INTRA:          -1.795
REMARK INTER:                  -1.795
REMARK INTRA:                   0.000
REMARK UNBOUND:                 0.000
REMARK  Name = CT1001562328
REMARK  0 active torsions:
REMARK  status: ('A' for Active; 'I' for Inactive)
REMARK                            x       y       z     vdW  Elec       q    Type
REMARK                         _______ _______ _______ _____ _____    ______ ____
ROOT
ATOM      1  C   UNL     1      -1.951   8.629   4.516  0.00  0.00    +0.000 C 
ATOM      2  O   UNL     1      -1.595   8.453   5.657  0.00  0.00    +0.000 OA
ATOM      3  O   UNL     1      -2.308   8.804   3.375  0.00  0.00    +0.000 OA
ENDROOT
TORSDOF 0
ENDMDL
