MODEL 1
REMARK VINA RESULT:    -1.759      0.000      0.000
REMARK INTER + INTRA:          -1.759
REMARK INTER:                  -1.759
REMARK INTRA:                   0.000
REMARK UNBOUND:                 0.000
REMARK  Name = CT1001562328
REMARK  0 active torsions:
REMARK  status: ('A' for Active; 'I' for Inactive)
REMARK                            x       y       z     vdW  Elec       q    Type
REMARK                         _______ _______ _______ _____ _____    ______ ____
ROOT
ATOM      1  C   UNL     1      -1.184   7.476   8.008  0.00  0.00    +0.000 C 
ATOM      2  O   UNL     1      -1.445   7.978   9.075  0.00  0.00    +0.000 OA
ATOM      3  O   UNL     1      -0.921   6.974   6.941  0.00  0.00    +0.000 OA
ENDROOT
TORSDOF 0
ENDMDL
MODEL 2
REMARK VINA RESULT:    -1.758      0.001      1.973
REMARK INTER + INTRA:          -1.758
REMARK INTER:                  -1.758
REMARK INTRA:                   0.000
REMARK UNBOUND:                 0.000
REMARK  Name = CT1001562328
REMARK  0 active torsions:
REMARK  status: ('A' for Active; 'I' for Inactive)
REMARK                            x       y       z     vdW  Elec       q    Type
REMARK                         _______ _______ _______ _____ _____    ______ ____
ROOT
ATOM      1  C   UNL     1      -1.182   7.476   8.007  0.00  0.00    +0.000 C 
ATOM      2  O   UNL     1      -0.922   6.974   6.940  0.00  0.00    +0.000 OA
ATOM      3  O   UNL     1      -1.444   7.979   9.074  0.00  0.00    +0.000 OA
ENDROOT
TORSDOF 0
ENDMDL
MODEL 3
REMARK VINA RESULT:    -1.674      8.414      8.774
REMARK INTER + INTRA:          -1.674
REMARK INTER:                  -1.674
REMARK INTRA:                   0.000
REMARK UNBOUND:                 0.000
REMARK  Name = CT1001562328
REMARK  0 active torsions:
REMARK  status: ('A' for Active; 'I' for Inactive)
REMARK                            x       y       z     vdW  Elec       q    Type
REMARK                         _______ _______ _______ _____ _____    ______ ____
ROOT
ATOM      1  C   UNL     1       3.535   0.160   6.983  0.00  0.00    +0.000 C 
ATOM      2  O   UNL     1       2.885   0.458   7.956  0.00  0.00    +0.000 OA
ATOM      3  O   UNL     1       4.186  -0.139   6.010  0.00  0.00    +0.000 OA
ENDROOT
TORSDOF 0
ENDMDL
MODEL 4
REMARK VINA RESULT:    -1.669      8.417      8.986
REMARK INTER + INTRA:          -1.669
REMARK INTER:                  -1.669
REMARK INTRA:                   0.000
REMARK UNBOUND:                 0.000
REMARK  Name = CT1001562328
REMARK  0 active torsions:
REMARK  status: ('A' for Active; 'I' for Inactive)
REMARK                            x       y       z     vdW  Elec       q    Type
REMARK                         _______ _______ _______ _____ _____    ______ ____
ROOT
ATOM      1  C   UNL     1       3.567   0.179   6.931  0.00  0.00    +0.000 C 
ATOM      2  O   UNL     1       4.214  -0.142   5.962  0.00  0.00    +0.000 OA
ATOM      3  O   UNL     1       2.920   0.499   7.900  0.00  0.00    +0.000 OA
ENDROOT
TORSDOF 0
ENDMDL
MODEL 5
REMARK VINA RESULT:    -1.634      8.805      9.228
REMARK INTER + INTRA:          -1.634
REMARK INTER:                  -1.634
REMARK INTRA:                   0.000
REMARK UNBOUND:                 0.000
REMARK  Name = CT1001562328
REMARK  0 active torsions:
REMARK  status: ('A' for Active; 'I' for Inactive)
REMARK                            x       y       z     vdW  Elec       q    Type
REMARK                         _______ _______ _______ _____ _____    ______ ____
ROOT
ATOM      1  C   UNL     1       4.075   0.108   6.335  0.00  0.00    +0.000 C 
ATOM      2  O   UNL     1       3.373   0.955   6.835  0.00  0.00    +0.000 OA
ATOM      3  O   UNL     1       4.778  -0.738   5.836  0.00  0.00    +0.000 OA
ENDROOT
TORSDOF 0
ENDMDL
