MODEL 1
REMARK VINA RESULT:    -1.995      0.000      0.000
REMARK INTER + INTRA:          -1.995
REMARK INTER:                  -1.995
REMARK INTRA:                   0.000
REMARK UNBOUND:                 0.000
REMARK  Name = CT1001562328
REMARK  0 active torsions:
REMARK  status: ('A' for Active; 'I' for Inactive)
REMARK                            x       y       z     vdW  Elec       q    Type
REMARK                         _______ _______ _______ _____ _____    ______ ____
ROOT
ATOM      1  C   UNL     1       2.648   2.175  -0.092  0.00  0.00    +0.000 C 
ATOM      2  O   UNL     1       2.008   2.533  -1.052  0.00  0.00    +0.000 OA
ATOM      3  O   UNL     1       3.289   1.818   0.868  0.00  0.00    +0.000 OA
ENDROOT
TORSDOF 0
ENDMDL
MODEL 2
REMARK VINA RESULT:    -1.988      0.105      1.974
REMARK INTER + INTRA:          -1.988
REMARK INTER:                  -1.988
REMARK INTRA:                   0.000
REMARK UNBOUND:                 0.000
REMARK  Name = CT1001562328
REMARK  0 active torsions:
REMARK  status: ('A' for Active; 'I' for Inactive)
REMARK                            x       y       z     vdW  Elec       q    Type
REMARK                         _______ _______ _______ _____ _____    ______ ____
ROOT
ATOM      1  C   UNL     1       2.677   2.252  -0.130  0.00  0.00    +0.000 C 
ATOM      2  O   UNL     1       3.348   1.853   0.792  0.00  0.00    +0.000 OA
ATOM      3  O   UNL     1       2.006   2.653  -1.051  0.00  0.00    +0.000 OA
ENDROOT
TORSDOF 0
ENDMDL
MODEL 3
REMARK VINA RESULT:    -1.848      2.374      3.237
REMARK INTER + INTRA:          -1.848
REMARK INTER:                  -1.848
REMARK INTRA:                   0.000
REMARK UNBOUND:                 0.000
REMARK  Name = CT1001562328
REMARK  0 active torsions:
REMARK  status: ('A' for Active; 'I' for Inactive)
REMARK                            x       y       z     vdW  Elec       q    Type
REMARK                         _______ _______ _______ _____ _____    ______ ____
ROOT
ATOM      1  C   UNL     1       1.878   4.099  -1.888  0.00  0.00    +0.000 C 
ATOM      2  O   UNL     1       1.870   2.950  -1.516  0.00  0.00    +0.000 OA
ATOM      3  O   UNL     1       1.888   5.249  -2.259  0.00  0.00    +0.000 OA
ENDROOT
TORSDOF 0
ENDMDL
MODEL 4
REMARK VINA RESULT:    -1.778     12.781     13.093
REMARK INTER + INTRA:          -1.778
REMARK INTER:                  -1.778
REMARK INTRA:                   0.000
REMARK UNBOUND:                 0.000
REMARK  Name = CT1001562328
REMARK  0 active torsions:
REMARK  status: ('A' for Active; 'I' for Inactive)
REMARK                            x       y       z     vdW  Elec       q    Type
REMARK                         _______ _______ _______ _____ _____    ______ ____
ROOT
ATOM      1  C   UNL     1      -5.625   6.376  -9.179  0.00  0.00    +0.000 C 
ATOM      2  O   UNL     1      -5.627   7.126  -8.231  0.00  0.00    +0.000 OA
ATOM      3  O   UNL     1      -5.622   5.625 -10.125  0.00  0.00    +0.000 OA
ENDROOT
TORSDOF 0
ENDMDL
MODEL 5
REMARK VINA RESULT:    -1.689      6.034      6.121
REMARK INTER + INTRA:          -1.689
REMARK INTER:                  -1.689
REMARK INTRA:                   0.000
REMARK UNBOUND:                 0.000
REMARK  Name = CT1001562328
REMARK  0 active torsions:
REMARK  status: ('A' for Active; 'I' for Inactive)
REMARK                            x       y       z     vdW  Elec       q    Type
REMARK                         _______ _______ _______ _____ _____    ______ ____
ROOT
ATOM      1  C   UNL     1       1.891   2.055   5.933  0.00  0.00    +0.000 C 
ATOM      2  O   UNL     1       0.804   1.771   5.489  0.00  0.00    +0.000 OA
ATOM      3  O   UNL     1       2.978   2.337   6.378  0.00  0.00    +0.000 OA
ENDROOT
TORSDOF 0
ENDMDL
