MODEL 1
REMARK VINA RESULT:    -1.771      0.000      0.000
REMARK INTER + INTRA:          -1.771
REMARK INTER:                  -1.771
REMARK INTRA:                   0.000
REMARK UNBOUND:                 0.000
REMARK  Name = CT1001562328
REMARK  0 active torsions:
REMARK  status: ('A' for Active; 'I' for Inactive)
REMARK                            x       y       z     vdW  Elec       q    Type
REMARK                         _______ _______ _______ _____ _____    ______ ____
ROOT
ATOM      1  C   UNL     1       7.814  -0.686  -0.249  0.00  0.00    +0.000 C 
ATOM      2  O   UNL     1       7.546  -1.817  -0.578  0.00  0.00    +0.000 OA
ATOM      3  O   UNL     1       8.083   0.445   0.079  0.00  0.00    +0.000 OA
ENDROOT
TORSDOF 0
ENDMDL
MODEL 2
REMARK VINA RESULT:    -1.769      0.033      1.973
REMARK INTER + INTRA:          -1.769
REMARK INTER:                  -1.769
REMARK INTRA:                   0.000
REMARK UNBOUND:                 0.000
REMARK  Name = CT1001562328
REMARK  0 active torsions:
REMARK  status: ('A' for Active; 'I' for Inactive)
REMARK                            x       y       z     vdW  Elec       q    Type
REMARK                         _______ _______ _______ _____ _____    ______ ____
ROOT
ATOM      1  C   UNL     1       7.812  -0.706  -0.237  0.00  0.00    +0.000 C 
ATOM      2  O   UNL     1       8.099   0.427   0.069  0.00  0.00    +0.000 OA
ATOM      3  O   UNL     1       7.525  -1.839  -0.545  0.00  0.00    +0.000 OA
ENDROOT
TORSDOF 0
ENDMDL
MODEL 3
REMARK VINA RESULT:    -1.707      1.284      1.284
REMARK INTER + INTRA:          -1.707
REMARK INTER:                  -1.707
REMARK INTRA:                   0.000
REMARK UNBOUND:                 0.000
REMARK  Name = CT1001562328
REMARK  0 active torsions:
REMARK  status: ('A' for Active; 'I' for Inactive)
REMARK                            x       y       z     vdW  Elec       q    Type
REMARK                         _______ _______ _______ _____ _____    ______ ____
ROOT
ATOM      1  C   UNL     1       8.238  -1.295   0.140  0.00  0.00    +0.000 C 
ATOM      2  O   UNL     1       8.696  -2.238   0.740  0.00  0.00    +0.000 OA
ATOM      3  O   UNL     1       7.779  -0.351  -0.459  0.00  0.00    +0.000 OA
ENDROOT
TORSDOF 0
ENDMDL
MODEL 4
REMARK VINA RESULT:    -1.697      1.225      1.940
REMARK INTER + INTRA:          -1.697
REMARK INTER:                  -1.697
REMARK INTRA:                   0.000
REMARK UNBOUND:                 0.000
REMARK  Name = CT1001562328
REMARK  0 active torsions:
REMARK  status: ('A' for Active; 'I' for Inactive)
REMARK                            x       y       z     vdW  Elec       q    Type
REMARK                         _______ _______ _______ _____ _____    ______ ____
ROOT
ATOM      1  C   UNL     1       8.253  -1.205   0.224  0.00  0.00    +0.000 C 
ATOM      2  O   UNL     1       7.792  -0.204  -0.270  0.00  0.00    +0.000 OA
ATOM      3  O   UNL     1       8.713  -2.208   0.717  0.00  0.00    +0.000 OA
ENDROOT
TORSDOF 0
ENDMDL
MODEL 5
REMARK VINA RESULT:    -1.680      7.457      7.902
REMARK INTER + INTRA:          -1.680
REMARK INTER:                  -1.680
REMARK INTRA:                   0.000
REMARK UNBOUND:                 0.000
REMARK  Name = CT1001562328
REMARK  0 active torsions:
REMARK  status: ('A' for Active; 'I' for Inactive)
REMARK                            x       y       z     vdW  Elec       q    Type
REMARK                         _______ _______ _______ _____ _____    ______ ____
ROOT
ATOM      1  C   UNL     1       2.405   4.838  -0.599  0.00  0.00    +0.000 C 
ATOM      2  O   UNL     1       1.704   5.117   0.344  0.00  0.00    +0.000 OA
ATOM      3  O   UNL     1       3.105   4.559  -1.544  0.00  0.00    +0.000 OA
ENDROOT
TORSDOF 0
ENDMDL
