MODEL 1
REMARK VINA RESULT:    -1.770      0.000      0.000
REMARK INTER + INTRA:          -1.770
REMARK INTER:                  -1.770
REMARK INTRA:                   0.000
REMARK UNBOUND:                 0.000
REMARK  Name = CT1001562328
REMARK  0 active torsions:
REMARK  status: ('A' for Active; 'I' for Inactive)
REMARK                            x       y       z     vdW  Elec       q    Type
REMARK                         _______ _______ _______ _____ _____    ______ ____
ROOT
ATOM      1  C   UNL     1       8.126  -7.262   4.070  0.00  0.00    +0.000 C 
ATOM      2  O   UNL     1       8.833  -7.896   4.818  0.00  0.00    +0.000 OA
ATOM      3  O   UNL     1       7.419  -6.628   3.323  0.00  0.00    +0.000 OA
ENDROOT
TORSDOF 0
ENDMDL
MODEL 2
REMARK VINA RESULT:    -1.764      0.051      1.973
REMARK INTER + INTRA:          -1.764
REMARK INTER:                  -1.764
REMARK INTRA:                   0.000
REMARK UNBOUND:                 0.000
REMARK  Name = CT1001562328
REMARK  0 active torsions:
REMARK  status: ('A' for Active; 'I' for Inactive)
REMARK                            x       y       z     vdW  Elec       q    Type
REMARK                         _______ _______ _______ _____ _____    ______ ____
ROOT
ATOM      1  C   UNL     1       8.150  -7.293   4.098  0.00  0.00    +0.000 C 
ATOM      2  O   UNL     1       7.432  -6.677   3.347  0.00  0.00    +0.000 OA
ATOM      3  O   UNL     1       8.870  -7.907   4.850  0.00  0.00    +0.000 OA
ENDROOT
TORSDOF 0
ENDMDL
MODEL 3
REMARK VINA RESULT:    -1.754      3.529      4.170
REMARK INTER + INTRA:          -1.754
REMARK INTER:                  -1.754
REMARK INTRA:                   0.000
REMARK UNBOUND:                 0.000
REMARK  Name = CT1001562328
REMARK  0 active torsions:
REMARK  status: ('A' for Active; 'I' for Inactive)
REMARK                            x       y       z     vdW  Elec       q    Type
REMARK                         _______ _______ _______ _____ _____    ______ ____
ROOT
ATOM      1  C   UNL     1       9.032  -6.007   0.646  0.00  0.00    +0.000 C 
ATOM      2  O   UNL     1       9.060  -4.861   0.263  0.00  0.00    +0.000 OA
ATOM      3  O   UNL     1       9.004  -7.152   1.028  0.00  0.00    +0.000 OA
ENDROOT
TORSDOF 0
ENDMDL
MODEL 4
REMARK VINA RESULT:    -1.754      3.610      3.865
REMARK INTER + INTRA:          -1.754
REMARK INTER:                  -1.754
REMARK INTRA:                   0.000
REMARK UNBOUND:                 0.000
REMARK  Name = CT1001562328
REMARK  0 active torsions:
REMARK  status: ('A' for Active; 'I' for Inactive)
REMARK                            x       y       z     vdW  Elec       q    Type
REMARK                         _______ _______ _______ _____ _____    ______ ____
ROOT
ATOM      1  C   UNL     1       9.036  -6.028   0.608  0.00  0.00    +0.000 C 
ATOM      2  O   UNL     1       9.098  -7.195   0.912  0.00  0.00    +0.000 OA
ATOM      3  O   UNL     1       8.975  -4.860   0.303  0.00  0.00    +0.000 OA
ENDROOT
TORSDOF 0
ENDMDL
MODEL 5
REMARK VINA RESULT:    -1.734      2.852      3.208
REMARK INTER + INTRA:          -1.734
REMARK INTER:                  -1.734
REMARK INTRA:                   0.000
REMARK UNBOUND:                 0.000
REMARK  Name = CT1001562328
REMARK  0 active torsions:
REMARK  status: ('A' for Active; 'I' for Inactive)
REMARK                            x       y       z     vdW  Elec       q    Type
REMARK                         _______ _______ _______ _____ _____    ______ ____
ROOT
ATOM      1  C   UNL     1       9.696  -8.686   6.284  0.00  0.00    +0.000 C 
ATOM      2  O   UNL     1       9.444  -8.829   7.457  0.00  0.00    +0.000 OA
ATOM      3  O   UNL     1       9.949  -8.542   5.112  0.00  0.00    +0.000 OA
ENDROOT
TORSDOF 0
ENDMDL
