MODEL 1
REMARK VINA RESULT:    -1.811      0.000      0.000
REMARK INTER + INTRA:          -1.811
REMARK INTER:                  -1.811
REMARK INTRA:                   0.000
REMARK UNBOUND:                 0.000
REMARK  Name = CT1001562328
REMARK  0 active torsions:
REMARK  status: ('A' for Active; 'I' for Inactive)
REMARK                            x       y       z     vdW  Elec       q    Type
REMARK                         _______ _______ _______ _____ _____    ______ ____
ROOT
ATOM      1  C   UNL     1       9.449  -1.475   4.520  0.00  0.00    +0.000 C 
ATOM      2  O   UNL     1       9.368  -0.570   5.315  0.00  0.00    +0.000 OA
ATOM      3  O   UNL     1       9.530  -2.382   3.725  0.00  0.00    +0.000 OA
ENDROOT
TORSDOF 0
ENDMDL
MODEL 2
REMARK VINA RESULT:    -1.806      0.452      1.974
REMARK INTER + INTRA:          -1.806
REMARK INTER:                  -1.806
REMARK INTRA:                   0.000
REMARK UNBOUND:                 0.000
REMARK  Name = CT1001562328
REMARK  0 active torsions:
REMARK  status: ('A' for Active; 'I' for Inactive)
REMARK                            x       y       z     vdW  Elec       q    Type
REMARK                         _______ _______ _______ _____ _____    ______ ____
ROOT
ATOM      1  C   UNL     1       9.445  -1.270   4.768  0.00  0.00    +0.000 C 
ATOM      2  O   UNL     1       9.880  -2.020   3.926  0.00  0.00    +0.000 OA
ATOM      3  O   UNL     1       9.011  -0.520   5.609  0.00  0.00    +0.000 OA
ENDROOT
TORSDOF 0
ENDMDL
MODEL 3
REMARK VINA RESULT:    -1.751     20.521     20.697
REMARK INTER + INTRA:          -1.751
REMARK INTER:                  -1.751
REMARK INTRA:                   0.000
REMARK UNBOUND:                 0.000
REMARK  Name = CT1001562328
REMARK  0 active torsions:
REMARK  status: ('A' for Active; 'I' for Inactive)
REMARK                            x       y       z     vdW  Elec       q    Type
REMARK                         _______ _______ _______ _____ _____    ______ ____
ROOT
ATOM      1  C   UNL     1      -5.564   2.850  -8.990  0.00  0.00    +0.000 C 
ATOM      2  O   UNL     1      -4.964   2.281  -8.110  0.00  0.00    +0.000 OA
ATOM      3  O   UNL     1      -6.162   3.420  -9.872  0.00  0.00    +0.000 OA
ENDROOT
TORSDOF 0
ENDMDL
MODEL 4
REMARK VINA RESULT:    -1.700     19.952     20.128
REMARK INTER + INTRA:          -1.700
REMARK INTER:                  -1.700
REMARK INTRA:                   0.000
REMARK UNBOUND:                 0.000
REMARK  Name = CT1001562328
REMARK  0 active torsions:
REMARK  status: ('A' for Active; 'I' for Inactive)
REMARK                            x       y       z     vdW  Elec       q    Type
REMARK                         _______ _______ _______ _____ _____    ______ ____
ROOT
ATOM      1  C   UNL     1      -5.132   2.679  -8.657  0.00  0.00    +0.000 C 
ATOM      2  O   UNL     1      -5.695   3.497  -9.346  0.00  0.00    +0.000 OA
ATOM      3  O   UNL     1      -4.569   1.862  -7.969  0.00  0.00    +0.000 OA
ENDROOT
TORSDOF 0
ENDMDL
MODEL 5
REMARK VINA RESULT:    -1.691      1.626      1.962
REMARK INTER + INTRA:          -1.691
REMARK INTER:                  -1.691
REMARK INTRA:                   0.000
REMARK UNBOUND:                 0.000
REMARK  Name = CT1001562328
REMARK  0 active torsions:
REMARK  status: ('A' for Active; 'I' for Inactive)
REMARK                            x       y       z     vdW  Elec       q    Type
REMARK                         _______ _______ _______ _____ _____    ______ ____
ROOT
ATOM      1  C   UNL     1       8.993   0.049   5.578  0.00  0.00    +0.000 C 
ATOM      2  O   UNL     1       8.652   1.151   5.938  0.00  0.00    +0.000 OA
ATOM      3  O   UNL     1       9.335  -1.052   5.217  0.00  0.00    +0.000 OA
ENDROOT
TORSDOF 0
ENDMDL
