MODEL 1
REMARK VINA RESULT:    -1.847      0.000      0.000
REMARK INTER + INTRA:          -1.847
REMARK INTER:                  -1.847
REMARK INTRA:                   0.000
REMARK UNBOUND:                 0.000
REMARK  Name = CT1001562328
REMARK  0 active torsions:
REMARK  status: ('A' for Active; 'I' for Inactive)
REMARK                            x       y       z     vdW  Elec       q    Type
REMARK                         _______ _______ _______ _____ _____    ______ ____
ROOT
ATOM      1  C   UNL     1       3.141  -4.200   9.694  0.00  0.00    +0.000 C 
ATOM      2  O   UNL     1       3.454  -5.288  10.115  0.00  0.00    +0.000 OA
ATOM      3  O   UNL     1       2.827  -3.112   9.273  0.00  0.00    +0.000 OA
ENDROOT
TORSDOF 0
ENDMDL
MODEL 2
REMARK VINA RESULT:    -1.829     10.048     10.623
REMARK INTER + INTRA:          -1.829
REMARK INTER:                  -1.829
REMARK INTRA:                   0.000
REMARK UNBOUND:                 0.000
REMARK  Name = CT1001562328
REMARK  0 active torsions:
REMARK  status: ('A' for Active; 'I' for Inactive)
REMARK                            x       y       z     vdW  Elec       q    Type
REMARK                         _______ _______ _______ _____ _____    ______ ____
ROOT
ATOM      1  C   UNL     1       1.765   6.158   9.144  0.00  0.00    +0.000 C 
ATOM      2  O   UNL     1       2.182   6.929   8.312  0.00  0.00    +0.000 OA
ATOM      3  O   UNL     1       1.348   5.389   9.977  0.00  0.00    +0.000 OA
ENDROOT
TORSDOF 0
ENDMDL
MODEL 3
REMARK VINA RESULT:    -1.826     10.077     10.529
REMARK INTER + INTRA:          -1.826
REMARK INTER:                  -1.826
REMARK INTRA:                   0.000
REMARK UNBOUND:                 0.000
REMARK  Name = CT1001562328
REMARK  0 active torsions:
REMARK  status: ('A' for Active; 'I' for Inactive)
REMARK                            x       y       z     vdW  Elec       q    Type
REMARK                         _______ _______ _______ _____ _____    ______ ____
ROOT
ATOM      1  C   UNL     1       1.800   6.201   9.103  0.00  0.00    +0.000 C 
ATOM      2  O   UNL     1       1.380   5.419   9.923  0.00  0.00    +0.000 OA
ATOM      3  O   UNL     1       2.219   6.983   8.283  0.00  0.00    +0.000 OA
ENDROOT
TORSDOF 0
ENDMDL
MODEL 4
REMARK VINA RESULT:    -1.755     18.752     18.980
REMARK INTER + INTRA:          -1.755
REMARK INTER:                  -1.755
REMARK INTRA:                   0.000
REMARK UNBOUND:                 0.000
REMARK  Name = CT1001562328
REMARK  0 active torsions:
REMARK  status: ('A' for Active; 'I' for Inactive)
REMARK                            x       y       z     vdW  Elec       q    Type
REMARK                         _______ _______ _______ _____ _____    ______ ____
ROOT
ATOM      1  C   UNL     1      -7.212   4.662  -3.394  0.00  0.00    +0.000 C 
ATOM      2  O   UNL     1      -6.543   5.623  -3.692  0.00  0.00    +0.000 OA
ATOM      3  O   UNL     1      -7.880   3.700  -3.098  0.00  0.00    +0.000 OA
ENDROOT
TORSDOF 0
ENDMDL
MODEL 5
REMARK VINA RESULT:    -1.735     18.282     18.652
REMARK INTER + INTRA:          -1.735
REMARK INTER:                  -1.735
REMARK INTRA:                   0.000
REMARK UNBOUND:                 0.000
REMARK  Name = CT1001562328
REMARK  0 active torsions:
REMARK  status: ('A' for Active; 'I' for Inactive)
REMARK                            x       y       z     vdW  Elec       q    Type
REMARK                         _______ _______ _______ _____ _____    ______ ____
ROOT
ATOM      1  C   UNL     1      -7.516   4.131  -3.013  0.00  0.00    +0.000 C 
ATOM      2  O   UNL     1      -7.957   5.198  -2.659  0.00  0.00    +0.000 OA
ATOM      3  O   UNL     1      -7.075   3.063  -3.366  0.00  0.00    +0.000 OA
ENDROOT
TORSDOF 0
ENDMDL
