MODEL 1
REMARK VINA RESULT:    -1.848      0.000      0.000
REMARK INTER + INTRA:          -1.848
REMARK INTER:                  -1.848
REMARK INTRA:                   0.000
REMARK UNBOUND:                 0.000
REMARK  Name = CT1001562328
REMARK  0 active torsions:
REMARK  status: ('A' for Active; 'I' for Inactive)
REMARK                            x       y       z     vdW  Elec       q    Type
REMARK                         _______ _______ _______ _____ _____    ______ ____
ROOT
ATOM      1  C   UNL     1      -1.123  -9.181  -1.882  0.00  0.00    +0.000 C 
ATOM      2  O   UNL     1      -0.369 -10.125  -1.894  0.00  0.00    +0.000 OA
ATOM      3  O   UNL     1      -1.876  -8.237  -1.869  0.00  0.00    +0.000 OA
ENDROOT
TORSDOF 0
ENDMDL
MODEL 2
REMARK VINA RESULT:    -1.845      0.033      1.973
REMARK INTER + INTRA:          -1.845
REMARK INTER:                  -1.845
REMARK INTRA:                   0.000
REMARK UNBOUND:                 0.000
REMARK  Name = CT1001562328
REMARK  0 active torsions:
REMARK  status: ('A' for Active; 'I' for Inactive)
REMARK                            x       y       z     vdW  Elec       q    Type
REMARK                         _______ _______ _______ _____ _____    ______ ____
ROOT
ATOM      1  C   UNL     1      -1.127  -9.188  -1.906  0.00  0.00    +0.000 C 
ATOM      2  O   UNL     1      -1.887  -8.250  -1.872  0.00  0.00    +0.000 OA
ATOM      3  O   UNL     1      -0.365 -10.125  -1.942  0.00  0.00    +0.000 OA
ENDROOT
TORSDOF 0
ENDMDL
MODEL 3
REMARK VINA RESULT:    -1.647     15.712     15.803
REMARK INTER + INTRA:          -1.647
REMARK INTER:                  -1.647
REMARK INTRA:                   0.000
REMARK UNBOUND:                 0.000
REMARK  Name = CT1001562328
REMARK  0 active torsions:
REMARK  status: ('A' for Active; 'I' for Inactive)
REMARK                            x       y       z     vdW  Elec       q    Type
REMARK                         _______ _______ _______ _____ _____    ______ ____
ROOT
ATOM      1  C   UNL     1       8.031   2.572   3.121  0.00  0.00    +0.000 C 
ATOM      2  O   UNL     1       7.277   2.628   4.064  0.00  0.00    +0.000 OA
ATOM      3  O   UNL     1       8.785   2.516   2.179  0.00  0.00    +0.000 OA
ENDROOT
TORSDOF 0
ENDMDL
MODEL 4
REMARK VINA RESULT:    -1.636     15.795     15.868
REMARK INTER + INTRA:          -1.636
REMARK INTER:                  -1.636
REMARK INTRA:                   0.000
REMARK UNBOUND:                 0.000
REMARK  Name = CT1001562328
REMARK  0 active torsions:
REMARK  status: ('A' for Active; 'I' for Inactive)
REMARK                            x       y       z     vdW  Elec       q    Type
REMARK                         _______ _______ _______ _____ _____    ______ ____
ROOT
ATOM      1  C   UNL     1       8.132   2.629   2.973  0.00  0.00    +0.000 C 
ATOM      2  O   UNL     1       7.319   2.889   3.828  0.00  0.00    +0.000 OA
ATOM      3  O   UNL     1       8.945   2.368   2.118  0.00  0.00    +0.000 OA
ENDROOT
TORSDOF 0
ENDMDL
MODEL 5
REMARK VINA RESULT:    -1.633     15.787     15.787
REMARK INTER + INTRA:          -1.633
REMARK INTER:                  -1.633
REMARK INTRA:                   0.000
REMARK UNBOUND:                 0.000
REMARK  Name = CT1001562328
REMARK  0 active torsions:
REMARK  status: ('A' for Active; 'I' for Inactive)
REMARK                            x       y       z     vdW  Elec       q    Type
REMARK                         _______ _______ _______ _____ _____    ______ ____
ROOT
ATOM      1  C   UNL     1       8.135   2.628   2.952  0.00  0.00    +0.000 C 
ATOM      2  O   UNL     1       8.972   2.342   2.130  0.00  0.00    +0.000 OA
ATOM      3  O   UNL     1       7.296   2.913   3.774  0.00  0.00    +0.000 OA
ENDROOT
TORSDOF 0
ENDMDL
