MODEL 1
REMARK VINA RESULT:    -1.989      0.000      0.000
REMARK INTER + INTRA:          -1.989
REMARK INTER:                  -1.989
REMARK INTRA:                   0.000
REMARK UNBOUND:                 0.000
REMARK  Name = CT1001562328
REMARK  0 active torsions:
REMARK  status: ('A' for Active; 'I' for Inactive)
REMARK                            x       y       z     vdW  Elec       q    Type
REMARK                         _______ _______ _______ _____ _____    ______ ____
ROOT
ATOM      1  C   UNL     1       2.631   2.256  -0.158  0.00  0.00    +0.000 C 
ATOM      2  O   UNL     1       1.971   2.618  -1.103  0.00  0.00    +0.000 OA
ATOM      3  O   UNL     1       3.292   1.895   0.787  0.00  0.00    +0.000 OA
ENDROOT
TORSDOF 0
ENDMDL
MODEL 2
REMARK VINA RESULT:    -1.855      2.435      3.239
REMARK INTER + INTRA:          -1.855
REMARK INTER:                  -1.855
REMARK INTRA:                   0.000
REMARK UNBOUND:                 0.000
REMARK  Name = CT1001562328
REMARK  0 active torsions:
REMARK  status: ('A' for Active; 'I' for Inactive)
REMARK                            x       y       z     vdW  Elec       q    Type
REMARK                         _______ _______ _______ _____ _____    ______ ____
ROOT
ATOM      1  C   UNL     1       1.855   4.199  -1.970  0.00  0.00    +0.000 C 
ATOM      2  O   UNL     1       1.797   3.029  -1.678  0.00  0.00    +0.000 OA
ATOM      3  O   UNL     1       1.914   5.370  -2.264  0.00  0.00    +0.000 OA
ENDROOT
TORSDOF 0
ENDMDL
MODEL 3
REMARK VINA RESULT:    -1.798     12.710     12.953
REMARK INTER + INTRA:          -1.798
REMARK INTER:                  -1.798
REMARK INTRA:                   0.000
REMARK UNBOUND:                 0.000
REMARK  Name = CT1001562328
REMARK  0 active torsions:
REMARK  status: ('A' for Active; 'I' for Inactive)
REMARK                            x       y       z     vdW  Elec       q    Type
REMARK                         _______ _______ _______ _____ _____    ______ ____
ROOT
ATOM      1  C   UNL     1      -5.672   6.388  -9.138  0.00  0.00    +0.000 C 
ATOM      2  O   UNL     1      -5.588   5.696 -10.125  0.00  0.00    +0.000 OA
ATOM      3  O   UNL     1      -5.755   7.081  -8.152  0.00  0.00    +0.000 OA
ENDROOT
TORSDOF 0
ENDMDL
MODEL 4
REMARK VINA RESULT:    -1.692      6.090      6.402
REMARK INTER + INTRA:          -1.692
REMARK INTER:                  -1.692
REMARK INTRA:                   0.000
REMARK UNBOUND:                 0.000
REMARK  Name = CT1001562328
REMARK  0 active torsions:
REMARK  status: ('A' for Active; 'I' for Inactive)
REMARK                            x       y       z     vdW  Elec       q    Type
REMARK                         _______ _______ _______ _____ _____    ______ ____
ROOT
ATOM      1  C   UNL     1       1.886   2.053   5.929  0.00  0.00    +0.000 C 
ATOM      2  O   UNL     1       2.971   2.334   6.379  0.00  0.00    +0.000 OA
ATOM      3  O   UNL     1       0.801   1.771   5.477  0.00  0.00    +0.000 OA
ENDROOT
TORSDOF 0
ENDMDL
MODEL 5
REMARK VINA RESULT:    -1.677      6.097      6.193
REMARK INTER + INTRA:          -1.677
REMARK INTER:                  -1.677
REMARK INTRA:                   0.000
REMARK UNBOUND:                 0.000
REMARK  Name = CT1001562328
REMARK  0 active torsions:
REMARK  status: ('A' for Active; 'I' for Inactive)
REMARK                            x       y       z     vdW  Elec       q    Type
REMARK                         _______ _______ _______ _____ _____    ______ ____
ROOT
ATOM      1  C   UNL     1       1.896   2.024   5.944  0.00  0.00    +0.000 C 
ATOM      2  O   UNL     1       0.806   1.782   5.482  0.00  0.00    +0.000 OA
ATOM      3  O   UNL     1       2.986   2.267   6.404  0.00  0.00    +0.000 OA
ENDROOT
TORSDOF 0
ENDMDL
