MODEL 1
REMARK VINA RESULT:    -1.761      0.000      0.000
REMARK INTER + INTRA:          -1.761
REMARK INTER:                  -1.761
REMARK INTRA:                   0.000
REMARK UNBOUND:                 0.000
REMARK  Name = CT1001562328
REMARK  0 active torsions:
REMARK  status: ('A' for Active; 'I' for Inactive)
REMARK                            x       y       z     vdW  Elec       q    Type
REMARK                         _______ _______ _______ _____ _____    ______ ____
ROOT
ATOM      1  C   UNL     1      -1.189   7.519   8.103  0.00  0.00    +0.000 C 
ATOM      2  O   UNL     1      -0.941   7.003   7.039  0.00  0.00    +0.000 OA
ATOM      3  O   UNL     1      -1.439   8.035   9.166  0.00  0.00    +0.000 OA
ENDROOT
TORSDOF 0
ENDMDL
MODEL 2
REMARK VINA RESULT:    -1.760      0.111      1.976
REMARK INTER + INTRA:          -1.760
REMARK INTER:                  -1.760
REMARK INTRA:                   0.000
REMARK UNBOUND:                 0.000
REMARK  Name = CT1001562328
REMARK  0 active torsions:
REMARK  status: ('A' for Active; 'I' for Inactive)
REMARK                            x       y       z     vdW  Elec       q    Type
REMARK                         _______ _______ _______ _____ _____    ______ ____
ROOT
ATOM      1  C   UNL     1      -1.178   7.477   8.001  0.00  0.00    +0.000 C 
ATOM      2  O   UNL     1      -1.438   7.979   9.069  0.00  0.00    +0.000 OA
ATOM      3  O   UNL     1      -0.920   6.974   6.933  0.00  0.00    +0.000 OA
ENDROOT
TORSDOF 0
ENDMDL
MODEL 3
REMARK VINA RESULT:    -1.674      8.428      8.799
REMARK INTER + INTRA:          -1.674
REMARK INTER:                  -1.674
REMARK INTRA:                   0.000
REMARK UNBOUND:                 0.000
REMARK  Name = CT1001562328
REMARK  0 active torsions:
REMARK  status: ('A' for Active; 'I' for Inactive)
REMARK                            x       y       z     vdW  Elec       q    Type
REMARK                         _______ _______ _______ _____ _____    ______ ____
ROOT
ATOM      1  C   UNL     1       3.551   0.200   6.992  0.00  0.00    +0.000 C 
ATOM      2  O   UNL     1       4.192  -0.105   6.015  0.00  0.00    +0.000 OA
ATOM      3  O   UNL     1       2.909   0.504   7.970  0.00  0.00    +0.000 OA
ENDROOT
TORSDOF 0
ENDMDL
MODEL 4
REMARK VINA RESULT:    -1.673      8.409      8.985
REMARK INTER + INTRA:          -1.673
REMARK INTER:                  -1.673
REMARK INTRA:                   0.000
REMARK UNBOUND:                 0.000
REMARK  Name = CT1001562328
REMARK  0 active torsions:
REMARK  status: ('A' for Active; 'I' for Inactive)
REMARK                            x       y       z     vdW  Elec       q    Type
REMARK                         _______ _______ _______ _____ _____    ______ ____
ROOT
ATOM      1  C   UNL     1       3.520   0.205   6.967  0.00  0.00    +0.000 C 
ATOM      2  O   UNL     1       2.876   0.492   7.948  0.00  0.00    +0.000 OA
ATOM      3  O   UNL     1       4.165  -0.084   5.987  0.00  0.00    +0.000 OA
ENDROOT
TORSDOF 0
ENDMDL
MODEL 5
REMARK VINA RESULT:    -1.633      8.854      9.286
REMARK INTER + INTRA:          -1.633
REMARK INTER:                  -1.633
REMARK INTRA:                   0.000
REMARK UNBOUND:                 0.000
REMARK  Name = CT1001562328
REMARK  0 active torsions:
REMARK  status: ('A' for Active; 'I' for Inactive)
REMARK                            x       y       z     vdW  Elec       q    Type
REMARK                         _______ _______ _______ _____ _____    ______ ____
ROOT
ATOM      1  C   UNL     1       4.077   0.106   6.335  0.00  0.00    +0.000 C 
ATOM      2  O   UNL     1       4.786  -0.735   5.836  0.00  0.00    +0.000 OA
ATOM      3  O   UNL     1       3.367   0.947   6.834  0.00  0.00    +0.000 OA
ENDROOT
TORSDOF 0
ENDMDL
