MODEL 1
REMARK VINA RESULT:    -1.913      0.000      0.000
REMARK INTER + INTRA:          -1.913
REMARK INTER:                  -1.913
REMARK INTRA:                   0.000
REMARK UNBOUND:                 0.000
REMARK  Name = CT1001562328
REMARK  0 active torsions:
REMARK  status: ('A' for Active; 'I' for Inactive)
REMARK                            x       y       z     vdW  Elec       q    Type
REMARK                         _______ _______ _______ _____ _____    ______ ____
ROOT
ATOM      1  C   UNL     1       5.373  -2.250   4.345  0.00  0.00    +0.000 C 
ATOM      2  O   UNL     1       4.583  -2.920   3.724  0.00  0.00    +0.000 OA
ATOM      3  O   UNL     1       6.163  -1.578   4.965  0.00  0.00    +0.000 OA
ENDROOT
TORSDOF 0
ENDMDL
MODEL 2
REMARK VINA RESULT:    -1.912      0.036      1.973
REMARK INTER + INTRA:          -1.912
REMARK INTER:                  -1.912
REMARK INTRA:                   0.000
REMARK UNBOUND:                 0.000
REMARK  Name = CT1001562328
REMARK  0 active torsions:
REMARK  status: ('A' for Active; 'I' for Inactive)
REMARK                            x       y       z     vdW  Elec       q    Type
REMARK                         _______ _______ _______ _____ _____    ______ ____
ROOT
ATOM      1  C   UNL     1       5.378  -2.227   4.342  0.00  0.00    +0.000 C 
ATOM      2  O   UNL     1       6.153  -1.527   4.950  0.00  0.00    +0.000 OA
ATOM      3  O   UNL     1       4.603  -2.925   3.732  0.00  0.00    +0.000 OA
ENDROOT
TORSDOF 0
ENDMDL
MODEL 3
REMARK VINA RESULT:    -1.875     16.191     16.385
REMARK INTER + INTRA:          -1.875
REMARK INTER:                  -1.875
REMARK INTRA:                   0.000
REMARK UNBOUND:                 0.000
REMARK  Name = CT1001562328
REMARK  0 active torsions:
REMARK  status: ('A' for Active; 'I' for Inactive)
REMARK                            x       y       z     vdW  Elec       q    Type
REMARK                         _______ _______ _______ _____ _____    ______ ____
ROOT
ATOM      1  C   UNL     1       1.803   7.586  -8.146  0.00  0.00    +0.000 C 
ATOM      2  O   UNL     1       2.977   7.306  -8.097  0.00  0.00    +0.000 OA
ATOM      3  O   UNL     1       0.629   7.867  -8.194  0.00  0.00    +0.000 OA
ENDROOT
TORSDOF 0
ENDMDL
MODEL 4
REMARK VINA RESULT:    -1.873     16.178     16.309
REMARK INTER + INTRA:          -1.873
REMARK INTER:                  -1.873
REMARK INTRA:                   0.000
REMARK UNBOUND:                 0.000
REMARK  Name = CT1001562328
REMARK  0 active torsions:
REMARK  status: ('A' for Active; 'I' for Inactive)
REMARK                            x       y       z     vdW  Elec       q    Type
REMARK                         _______ _______ _______ _____ _____    ______ ____
ROOT
ATOM      1  C   UNL     1       1.822   7.581  -8.138  0.00  0.00    +0.000 C 
ATOM      2  O   UNL     1       0.647   7.857  -8.191  0.00  0.00    +0.000 OA
ATOM      3  O   UNL     1       2.997   7.305  -8.085  0.00  0.00    +0.000 OA
ENDROOT
TORSDOF 0
ENDMDL
MODEL 5
REMARK VINA RESULT:    -1.863      2.965      3.315
REMARK INTER + INTRA:          -1.863
REMARK INTER:                  -1.863
REMARK INTRA:                   0.000
REMARK UNBOUND:                 0.000
REMARK  Name = CT1001562328
REMARK  0 active torsions:
REMARK  status: ('A' for Active; 'I' for Inactive)
REMARK                            x       y       z     vdW  Elec       q    Type
REMARK                         _______ _______ _______ _____ _____    ______ ____
ROOT
ATOM      1  C   UNL     1       3.767  -3.276   1.679  0.00  0.00    +0.000 C 
ATOM      2  O   UNL     1       2.632  -3.552   1.372  0.00  0.00    +0.000 OA
ATOM      3  O   UNL     1       4.903  -3.000   1.985  0.00  0.00    +0.000 OA
ENDROOT
TORSDOF 0
ENDMDL
