MODEL 1
REMARK VINA RESULT:    -1.802      0.000      0.000
REMARK INTER + INTRA:          -1.802
REMARK INTER:                  -1.802
REMARK INTRA:                   0.000
REMARK UNBOUND:                 0.000
REMARK  Name = CT1001562328
REMARK  0 active torsions:
REMARK  status: ('A' for Active; 'I' for Inactive)
REMARK                            x       y       z     vdW  Elec       q    Type
REMARK                         _______ _______ _______ _____ _____    ______ ____
ROOT
ATOM      1  C   UNL     1      -0.917  -7.738  -4.670  0.00  0.00    +0.000 C 
ATOM      2  O   UNL     1      -1.496  -8.203  -3.717  0.00  0.00    +0.000 OA
ATOM      3  O   UNL     1      -0.336  -7.274  -5.622  0.00  0.00    +0.000 OA
ENDROOT
TORSDOF 0
ENDMDL
MODEL 2
REMARK VINA RESULT:    -1.801      0.007      1.973
REMARK INTER + INTRA:          -1.801
REMARK INTER:                  -1.801
REMARK INTRA:                   0.000
REMARK UNBOUND:                 0.000
REMARK  Name = CT1001562328
REMARK  0 active torsions:
REMARK  status: ('A' for Active; 'I' for Inactive)
REMARK                            x       y       z     vdW  Elec       q    Type
REMARK                         _______ _______ _______ _____ _____    ______ ____
ROOT
ATOM      1  C   UNL     1      -0.916  -7.738  -4.665  0.00  0.00    +0.000 C 
ATOM      2  O   UNL     1      -0.330  -7.273  -5.614  0.00  0.00    +0.000 OA
ATOM      3  O   UNL     1      -1.501  -8.201  -3.715  0.00  0.00    +0.000 OA
ENDROOT
TORSDOF 0
ENDMDL
MODEL 3
REMARK VINA RESULT:    -1.768     15.399     15.846
REMARK INTER + INTRA:          -1.768
REMARK INTER:                  -1.768
REMARK INTRA:                   0.000
REMARK UNBOUND:                 0.000
REMARK  Name = CT1001562328
REMARK  0 active torsions:
REMARK  status: ('A' for Active; 'I' for Inactive)
REMARK                            x       y       z     vdW  Elec       q    Type
REMARK                         _______ _______ _______ _____ _____    ______ ____
ROOT
ATOM      1  C   UNL     1      -2.985  -0.411   9.182  0.00  0.00    +0.000 C 
ATOM      2  O   UNL     1      -3.863   0.334   9.548  0.00  0.00    +0.000 OA
ATOM      3  O   UNL     1      -2.107  -1.156   8.817  0.00  0.00    +0.000 OA
ENDROOT
TORSDOF 0
ENDMDL
MODEL 4
REMARK VINA RESULT:    -1.745     15.431     15.914
REMARK INTER + INTRA:          -1.745
REMARK INTER:                  -1.745
REMARK INTRA:                   0.000
REMARK UNBOUND:                 0.000
REMARK  Name = CT1001562328
REMARK  0 active torsions:
REMARK  status: ('A' for Active; 'I' for Inactive)
REMARK                            x       y       z     vdW  Elec       q    Type
REMARK                         _______ _______ _______ _____ _____    ______ ____
ROOT
ATOM      1  C   UNL     1      -2.960  -0.345   9.184  0.00  0.00    +0.000 C 
ATOM      2  O   UNL     1      -2.148  -1.166   8.827  0.00  0.00    +0.000 OA
ATOM      3  O   UNL     1      -3.771   0.476   9.541  0.00  0.00    +0.000 OA
ENDROOT
TORSDOF 0
ENDMDL
MODEL 5
REMARK VINA RESULT:    -1.663     15.734     16.114
REMARK INTER + INTRA:          -1.663
REMARK INTER:                  -1.663
REMARK INTRA:                   0.000
REMARK UNBOUND:                 0.000
REMARK  Name = CT1001562328
REMARK  0 active torsions:
REMARK  status: ('A' for Active; 'I' for Inactive)
REMARK                            x       y       z     vdW  Elec       q    Type
REMARK                         _______ _______ _______ _____ _____    ______ ____
ROOT
ATOM      1  C   UNL     1      -3.308  -0.012   9.225  0.00  0.00    +0.000 C 
ATOM      2  O   UNL     1      -3.323  -1.220   9.201  0.00  0.00    +0.000 OA
ATOM      3  O   UNL     1      -3.291   1.196   9.249  0.00  0.00    +0.000 OA
ENDROOT
TORSDOF 0
ENDMDL
