MODEL 1
REMARK VINA RESULT:    -1.766      0.000      0.000
REMARK INTER + INTRA:          -1.766
REMARK INTER:                  -1.766
REMARK INTRA:                   0.000
REMARK UNBOUND:                 0.000
REMARK  Name = CT1001562328
REMARK  0 active torsions:
REMARK  status: ('A' for Active; 'I' for Inactive)
REMARK                            x       y       z     vdW  Elec       q    Type
REMARK                         _______ _______ _______ _____ _____    ______ ____
ROOT
ATOM      1  C   UNL     1       7.834  -0.687  -0.249  0.00  0.00    +0.000 C 
ATOM      2  O   UNL     1       8.084   0.449   0.078  0.00  0.00    +0.000 OA
ATOM      3  O   UNL     1       7.583  -1.823  -0.577  0.00  0.00    +0.000 OA
ENDROOT
TORSDOF 0
ENDMDL
MODEL 2
REMARK VINA RESULT:    -1.766      0.068      1.973
REMARK INTER + INTRA:          -1.766
REMARK INTER:                  -1.766
REMARK INTRA:                   0.000
REMARK UNBOUND:                 0.000
REMARK  Name = CT1001562328
REMARK  0 active torsions:
REMARK  status: ('A' for Active; 'I' for Inactive)
REMARK                            x       y       z     vdW  Elec       q    Type
REMARK                         _______ _______ _______ _____ _____    ______ ____
ROOT
ATOM      1  C   UNL     1       7.804  -0.734  -0.250  0.00  0.00    +0.000 C 
ATOM      2  O   UNL     1       7.512  -1.867  -0.551  0.00  0.00    +0.000 OA
ATOM      3  O   UNL     1       8.096   0.399   0.053  0.00  0.00    +0.000 OA
ENDROOT
TORSDOF 0
ENDMDL
MODEL 3
REMARK VINA RESULT:    -1.706      1.266      1.266
REMARK INTER + INTRA:          -1.706
REMARK INTER:                  -1.706
REMARK INTRA:                   0.000
REMARK UNBOUND:                 0.000
REMARK  Name = CT1001562328
REMARK  0 active torsions:
REMARK  status: ('A' for Active; 'I' for Inactive)
REMARK                            x       y       z     vdW  Elec       q    Type
REMARK                         _______ _______ _______ _____ _____    ______ ____
ROOT
ATOM      1  C   UNL     1       8.238  -1.288   0.142  0.00  0.00    +0.000 C 
ATOM      2  O   UNL     1       7.782  -0.341  -0.454  0.00  0.00    +0.000 OA
ATOM      3  O   UNL     1       8.694  -2.234   0.738  0.00  0.00    +0.000 OA
ENDROOT
TORSDOF 0
ENDMDL
MODEL 4
REMARK VINA RESULT:    -1.706      1.305      1.903
REMARK INTER + INTRA:          -1.706
REMARK INTER:                  -1.706
REMARK INTRA:                   0.000
REMARK UNBOUND:                 0.000
REMARK  Name = CT1001562328
REMARK  0 active torsions:
REMARK  status: ('A' for Active; 'I' for Inactive)
REMARK                            x       y       z     vdW  Elec       q    Type
REMARK                         _______ _______ _______ _____ _____    ______ ____
ROOT
ATOM      1  C   UNL     1       8.247  -1.309   0.148  0.00  0.00    +0.000 C 
ATOM      2  O   UNL     1       8.717  -2.227   0.776  0.00  0.00    +0.000 OA
ATOM      3  O   UNL     1       7.775  -0.390  -0.479  0.00  0.00    +0.000 OA
ENDROOT
TORSDOF 0
ENDMDL
MODEL 5
REMARK VINA RESULT:    -1.680      7.461      7.916
REMARK INTER + INTRA:          -1.680
REMARK INTER:                  -1.680
REMARK INTRA:                   0.000
REMARK UNBOUND:                 0.000
REMARK  Name = CT1001562328
REMARK  0 active torsions:
REMARK  status: ('A' for Active; 'I' for Inactive)
REMARK                            x       y       z     vdW  Elec       q    Type
REMARK                         _______ _______ _______ _____ _____    ______ ____
ROOT
ATOM      1  C   UNL     1       2.405   4.838  -0.600  0.00  0.00    +0.000 C 
ATOM      2  O   UNL     1       3.105   4.559  -1.545  0.00  0.00    +0.000 OA
ATOM      3  O   UNL     1       1.706   5.117   0.345  0.00  0.00    +0.000 OA
ENDROOT
TORSDOF 0
ENDMDL
