MODEL 1
REMARK VINA RESULT:    -1.914      0.000      0.000
REMARK INTER + INTRA:          -1.914
REMARK INTER:                  -1.914
REMARK INTRA:                   0.000
REMARK UNBOUND:                 0.000
REMARK  Name = CT1001562328
REMARK  0 active torsions:
REMARK  status: ('A' for Active; 'I' for Inactive)
REMARK                            x       y       z     vdW  Elec       q    Type
REMARK                         _______ _______ _______ _____ _____    ______ ____
ROOT
ATOM      1  C   UNL     1       5.372  -2.235   4.354  0.00  0.00    +0.000 C 
ATOM      2  O   UNL     1       4.602  -2.924   3.727  0.00  0.00    +0.000 OA
ATOM      3  O   UNL     1       6.141  -1.545   4.981  0.00  0.00    +0.000 OA
ENDROOT
TORSDOF 0
ENDMDL
MODEL 2
REMARK VINA RESULT:    -1.910      0.034      1.973
REMARK INTER + INTRA:          -1.910
REMARK INTER:                  -1.910
REMARK INTRA:                   0.000
REMARK UNBOUND:                 0.000
REMARK  Name = CT1001562328
REMARK  0 active torsions:
REMARK  status: ('A' for Active; 'I' for Inactive)
REMARK                            x       y       z     vdW  Elec       q    Type
REMARK                         _______ _______ _______ _____ _____    ______ ____
ROOT
ATOM      1  C   UNL     1       5.374  -2.263   4.353  0.00  0.00    +0.000 C 
ATOM      2  O   UNL     1       6.160  -1.578   4.964  0.00  0.00    +0.000 OA
ATOM      3  O   UNL     1       4.590  -2.950   3.741  0.00  0.00    +0.000 OA
ENDROOT
TORSDOF 0
ENDMDL
MODEL 3
REMARK VINA RESULT:    -1.875     16.188     16.376
REMARK INTER + INTRA:          -1.875
REMARK INTER:                  -1.875
REMARK INTRA:                   0.000
REMARK UNBOUND:                 0.000
REMARK  Name = CT1001562328
REMARK  0 active torsions:
REMARK  status: ('A' for Active; 'I' for Inactive)
REMARK                            x       y       z     vdW  Elec       q    Type
REMARK                         _______ _______ _______ _____ _____    ______ ____
ROOT
ATOM      1  C   UNL     1       1.801   7.571  -8.147  0.00  0.00    +0.000 C 
ATOM      2  O   UNL     1       2.981   7.319  -8.096  0.00  0.00    +0.000 OA
ATOM      3  O   UNL     1       0.620   7.824  -8.199  0.00  0.00    +0.000 OA
ENDROOT
TORSDOF 0
ENDMDL
MODEL 4
REMARK VINA RESULT:    -1.863      2.984      3.334
REMARK INTER + INTRA:          -1.863
REMARK INTER:                  -1.863
REMARK INTRA:                   0.000
REMARK UNBOUND:                 0.000
REMARK  Name = CT1001562328
REMARK  0 active torsions:
REMARK  status: ('A' for Active; 'I' for Inactive)
REMARK                            x       y       z     vdW  Elec       q    Type
REMARK                         _______ _______ _______ _____ _____    ______ ____
ROOT
ATOM      1  C   UNL     1       3.767  -3.279   1.674  0.00  0.00    +0.000 C 
ATOM      2  O   UNL     1       2.631  -3.558   1.375  0.00  0.00    +0.000 OA
ATOM      3  O   UNL     1       4.904  -3.001   1.974  0.00  0.00    +0.000 OA
ENDROOT
TORSDOF 0
ENDMDL
MODEL 5
REMARK VINA RESULT:    -1.862     16.151     16.277
REMARK INTER + INTRA:          -1.862
REMARK INTER:                  -1.862
REMARK INTRA:                   0.000
REMARK UNBOUND:                 0.000
REMARK  Name = CT1001562328
REMARK  0 active torsions:
REMARK  status: ('A' for Active; 'I' for Inactive)
REMARK                            x       y       z     vdW  Elec       q    Type
REMARK                         _______ _______ _______ _____ _____    ______ ____
ROOT
ATOM      1  C   UNL     1       1.743   7.524  -8.123  0.00  0.00    +0.000 C 
ATOM      2  O   UNL     1       0.551   7.716  -8.148  0.00  0.00    +0.000 OA
ATOM      3  O   UNL     1       2.935   7.331  -8.099  0.00  0.00    +0.000 OA
ENDROOT
TORSDOF 0
ENDMDL
