MODEL 1
REMARK VINA RESULT:    -1.759      0.000      0.000
REMARK INTER + INTRA:          -1.759
REMARK INTER:                  -1.759
REMARK INTRA:                   0.000
REMARK UNBOUND:                 0.000
REMARK  Name = CT1001562328
REMARK  0 active torsions:
REMARK  status: ('A' for Active; 'I' for Inactive)
REMARK                            x       y       z     vdW  Elec       q    Type
REMARK                         _______ _______ _______ _____ _____    ______ ____
ROOT
ATOM      1  C   UNL     1      -1.182   7.477   8.007  0.00  0.00    +0.000 C 
ATOM      2  O   UNL     1      -1.447   7.978   9.074  0.00  0.00    +0.000 OA
ATOM      3  O   UNL     1      -0.919   6.976   6.940  0.00  0.00    +0.000 OA
ENDROOT
TORSDOF 0
ENDMDL
MODEL 2
REMARK VINA RESULT:    -1.755      0.007      1.973
REMARK INTER + INTRA:          -1.755
REMARK INTER:                  -1.755
REMARK INTRA:                   0.000
REMARK UNBOUND:                 0.000
REMARK  Name = CT1001562328
REMARK  0 active torsions:
REMARK  status: ('A' for Active; 'I' for Inactive)
REMARK                            x       y       z     vdW  Elec       q    Type
REMARK                         _______ _______ _______ _____ _____    ______ ____
ROOT
ATOM      1  C   UNL     1      -1.180   7.477   8.003  0.00  0.00    +0.000 C 
ATOM      2  O   UNL     1      -0.921   6.975   6.935  0.00  0.00    +0.000 OA
ATOM      3  O   UNL     1      -1.439   7.980   9.070  0.00  0.00    +0.000 OA
ENDROOT
TORSDOF 0
ENDMDL
MODEL 3
REMARK VINA RESULT:    -1.663      8.371      8.733
REMARK INTER + INTRA:          -1.663
REMARK INTER:                  -1.663
REMARK INTRA:                   0.000
REMARK UNBOUND:                 0.000
REMARK  Name = CT1001562328
REMARK  0 active torsions:
REMARK  status: ('A' for Active; 'I' for Inactive)
REMARK                            x       y       z     vdW  Elec       q    Type
REMARK                         _______ _______ _______ _____ _____    ______ ____
ROOT
ATOM      1  C   UNL     1       3.558   0.229   6.940  0.00  0.00    +0.000 C 
ATOM      2  O   UNL     1       2.945   0.570   7.924  0.00  0.00    +0.000 OA
ATOM      3  O   UNL     1       4.173  -0.111   5.957  0.00  0.00    +0.000 OA
ENDROOT
TORSDOF 0
ENDMDL
MODEL 4
REMARK VINA RESULT:    -1.661      8.374      8.940
REMARK INTER + INTRA:          -1.661
REMARK INTER:                  -1.661
REMARK INTRA:                   0.000
REMARK UNBOUND:                 0.000
REMARK  Name = CT1001562328
REMARK  0 active torsions:
REMARK  status: ('A' for Active; 'I' for Inactive)
REMARK                            x       y       z     vdW  Elec       q    Type
REMARK                         _______ _______ _______ _____ _____    ______ ____
ROOT
ATOM      1  C   UNL     1       3.555   0.222   6.955  0.00  0.00    +0.000 C 
ATOM      2  O   UNL     1       4.243  -0.090   6.012  0.00  0.00    +0.000 OA
ATOM      3  O   UNL     1       2.868   0.535   7.898  0.00  0.00    +0.000 OA
ENDROOT
TORSDOF 0
ENDMDL
MODEL 5
REMARK VINA RESULT:    -1.634     11.905     12.391
REMARK INTER + INTRA:          -1.634
REMARK INTER:                  -1.634
REMARK INTRA:                   0.000
REMARK UNBOUND:                 0.000
REMARK  Name = CT1001562328
REMARK  0 active torsions:
REMARK  status: ('A' for Active; 'I' for Inactive)
REMARK                            x       y       z     vdW  Elec       q    Type
REMARK                         _______ _______ _______ _____ _____    ______ ____
ROOT
ATOM      1  C   UNL     1       7.111   9.312  -0.880  0.00  0.00    +0.000 C 
ATOM      2  O   UNL     1       8.290   9.064  -0.789  0.00  0.00    +0.000 OA
ATOM      3  O   UNL     1       5.932   9.560  -0.971  0.00  0.00    +0.000 OA
ENDROOT
TORSDOF 0
ENDMDL
