MODEL 1
REMARK VINA RESULT:    -2.025      0.000      0.000
REMARK INTER + INTRA:          -2.025
REMARK INTER:                  -2.025
REMARK INTRA:                   0.000
REMARK UNBOUND:                 0.000
REMARK  Name = CT1001562328
REMARK  0 active torsions:
REMARK  status: ('A' for Active; 'I' for Inactive)
REMARK                            x       y       z     vdW  Elec       q    Type
REMARK                         _______ _______ _______ _____ _____    ______ ____
ROOT
ATOM      1  C   UNL     1      -5.942  -8.629  -3.360  0.00  0.00    +0.000 C 
ATOM      2  O   UNL     1      -6.987  -9.131  -3.700  0.00  0.00    +0.000 OA
ATOM      3  O   UNL     1      -4.898  -8.126  -3.019  0.00  0.00    +0.000 OA
ENDROOT
TORSDOF 0
ENDMDL
MODEL 2
REMARK VINA RESULT:    -2.024      0.002      1.973
REMARK INTER + INTRA:          -2.024
REMARK INTER:                  -2.024
REMARK INTRA:                   0.000
REMARK UNBOUND:                 0.000
REMARK  Name = CT1001562328
REMARK  0 active torsions:
REMARK  status: ('A' for Active; 'I' for Inactive)
REMARK                            x       y       z     vdW  Elec       q    Type
REMARK                         _______ _______ _______ _____ _____    ______ ____
ROOT
ATOM      1  C   UNL     1      -5.941  -8.628  -3.359  0.00  0.00    +0.000 C 
ATOM      2  O   UNL     1      -4.897  -8.125  -3.019  0.00  0.00    +0.000 OA
ATOM      3  O   UNL     1      -6.987  -9.130  -3.698  0.00  0.00    +0.000 OA
ENDROOT
TORSDOF 0
ENDMDL
MODEL 3
REMARK VINA RESULT:    -1.716      9.728     10.054
REMARK INTER + INTRA:          -1.716
REMARK INTER:                  -1.716
REMARK INTRA:                   0.000
REMARK UNBOUND:                 0.000
REMARK  Name = CT1001562328
REMARK  0 active torsions:
REMARK  status: ('A' for Active; 'I' for Inactive)
REMARK                            x       y       z     vdW  Elec       q    Type
REMARK                         _______ _______ _______ _____ _____    ______ ____
ROOT
ATOM      1  C   UNL     1      -3.778  -7.868   6.406  0.00  0.00    +0.000 C 
ATOM      2  O   UNL     1      -4.740  -7.652   5.708  0.00  0.00    +0.000 OA
ATOM      3  O   UNL     1      -2.817  -8.085   7.106  0.00  0.00    +0.000 OA
ENDROOT
TORSDOF 0
ENDMDL
MODEL 4
REMARK VINA RESULT:    -1.702      9.758     10.234
REMARK INTER + INTRA:          -1.702
REMARK INTER:                  -1.702
REMARK INTRA:                   0.000
REMARK UNBOUND:                 0.000
REMARK  Name = CT1001562328
REMARK  0 active torsions:
REMARK  status: ('A' for Active; 'I' for Inactive)
REMARK                            x       y       z     vdW  Elec       q    Type
REMARK                         _______ _______ _______ _____ _____    ______ ____
ROOT
ATOM      1  C   UNL     1      -3.721  -7.907   6.429  0.00  0.00    +0.000 C 
ATOM      2  O   UNL     1      -2.782  -8.120   7.160  0.00  0.00    +0.000 OA
ATOM      3  O   UNL     1      -4.659  -7.693   5.699  0.00  0.00    +0.000 OA
ENDROOT
TORSDOF 0
ENDMDL
MODEL 5
REMARK VINA RESULT:    -1.660      9.540     10.017
REMARK INTER + INTRA:          -1.660
REMARK INTER:                  -1.660
REMARK INTRA:                   0.000
REMARK UNBOUND:                 0.000
REMARK  Name = CT1001562328
REMARK  0 active torsions:
REMARK  status: ('A' for Active; 'I' for Inactive)
REMARK                            x       y       z     vdW  Elec       q    Type
REMARK                         _______ _______ _______ _____ _____    ______ ____
ROOT
ATOM      1  C   UNL     1      -3.368  -8.543   6.148  0.00  0.00    +0.000 C 
ATOM      2  O   UNL     1      -3.016  -7.913   7.117  0.00  0.00    +0.000 OA
ATOM      3  O   UNL     1      -3.722  -9.173   5.180  0.00  0.00    +0.000 OA
ENDROOT
TORSDOF 0
ENDMDL
