MODEL 1
REMARK VINA RESULT:    -1.848      0.000      0.000
REMARK INTER + INTRA:          -1.848
REMARK INTER:                  -1.848
REMARK INTRA:                   0.000
REMARK UNBOUND:                 0.000
REMARK  Name = CT1001562328
REMARK  0 active torsions:
REMARK  status: ('A' for Active; 'I' for Inactive)
REMARK                            x       y       z     vdW  Elec       q    Type
REMARK                         _______ _______ _______ _____ _____    ______ ____
ROOT
ATOM      1  C   UNL     1       3.145  -4.269   9.703  0.00  0.00    +0.000 C 
ATOM      2  O   UNL     1       3.413  -5.369  10.125  0.00  0.00    +0.000 OA
ATOM      3  O   UNL     1       2.876  -3.169   9.283  0.00  0.00    +0.000 OA
ENDROOT
TORSDOF 0
ENDMDL
MODEL 2
REMARK VINA RESULT:    -1.831     10.033     10.637
REMARK INTER + INTRA:          -1.831
REMARK INTER:                  -1.831
REMARK INTRA:                   0.000
REMARK UNBOUND:                 0.000
REMARK  Name = CT1001562328
REMARK  0 active torsions:
REMARK  status: ('A' for Active; 'I' for Inactive)
REMARK                            x       y       z     vdW  Elec       q    Type
REMARK                         _______ _______ _______ _____ _____    ______ ____
ROOT
ATOM      1  C   UNL     1       1.768   6.100   9.148  0.00  0.00    +0.000 C 
ATOM      2  O   UNL     1       2.168   6.904   8.341  0.00  0.00    +0.000 OA
ATOM      3  O   UNL     1       1.368   5.294   9.955  0.00  0.00    +0.000 OA
ENDROOT
TORSDOF 0
ENDMDL
MODEL 3
REMARK VINA RESULT:    -1.825     10.169     10.622
REMARK INTER + INTRA:          -1.825
REMARK INTER:                  -1.825
REMARK INTRA:                   0.000
REMARK UNBOUND:                 0.000
REMARK  Name = CT1001562328
REMARK  0 active torsions:
REMARK  status: ('A' for Active; 'I' for Inactive)
REMARK                            x       y       z     vdW  Elec       q    Type
REMARK                         _______ _______ _______ _____ _____    ______ ____
ROOT
ATOM      1  C   UNL     1       1.826   6.229   9.077  0.00  0.00    +0.000 C 
ATOM      2  O   UNL     1       1.392   5.445   9.887  0.00  0.00    +0.000 OA
ATOM      3  O   UNL     1       2.259   7.012   8.265  0.00  0.00    +0.000 OA
ENDROOT
TORSDOF 0
ENDMDL
MODEL 4
REMARK VINA RESULT:    -1.761     18.884     19.009
REMARK INTER + INTRA:          -1.761
REMARK INTER:                  -1.761
REMARK INTRA:                   0.000
REMARK UNBOUND:                 0.000
REMARK  Name = CT1001562328
REMARK  0 active torsions:
REMARK  status: ('A' for Active; 'I' for Inactive)
REMARK                            x       y       z     vdW  Elec       q    Type
REMARK                         _______ _______ _______ _____ _____    ______ ____
ROOT
ATOM      1  C   UNL     1      -7.244   4.758  -3.381  0.00  0.00    +0.000 C 
ATOM      2  O   UNL     1      -8.006   3.885  -3.037  0.00  0.00    +0.000 OA
ATOM      3  O   UNL     1      -6.482   5.630  -3.724  0.00  0.00    +0.000 OA
ENDROOT
TORSDOF 0
ENDMDL
MODEL 5
REMARK VINA RESULT:    -1.757     18.795     19.022
REMARK INTER + INTRA:          -1.757
REMARK INTER:                  -1.757
REMARK INTRA:                   0.000
REMARK UNBOUND:                 0.000
REMARK  Name = CT1001562328
REMARK  0 active torsions:
REMARK  status: ('A' for Active; 'I' for Inactive)
REMARK                            x       y       z     vdW  Elec       q    Type
REMARK                         _______ _______ _______ _____ _____    ______ ____
ROOT
ATOM      1  C   UNL     1      -7.209   4.643  -3.410  0.00  0.00    +0.000 C 
ATOM      2  O   UNL     1      -6.529   5.593  -3.718  0.00  0.00    +0.000 OA
ATOM      3  O   UNL     1      -7.888   3.692  -3.103  0.00  0.00    +0.000 OA
ENDROOT
TORSDOF 0
ENDMDL
