REMARK  Name = CT1001562328
REMARK  0 active torsions:
REMARK  status: ('A' for Active; 'I' for Inactive)
REMARK                            x       y       z     vdW  Elec       q    Type
REMARK                         _______ _______ _______ _____ _____    ______ ____
ROOT
ATOM      1  C   UNL     1      -0.939  -7.719  -4.675  0.00  0.00    +0.000 C 
ATOM      2  O   UNL     1      -0.380  -7.192  -5.607  0.00  0.00    +0.000 OA
ATOM      3  O   UNL     1      -1.500  -8.246  -3.743  0.00  0.00    +0.000 OA
ENDROOT
TORSDOF 0
