REMARK  Name = CT1001562328
REMARK  0 active torsions:
REMARK  status: ('A' for Active; 'I' for Inactive)
REMARK                            x       y       z     vdW  Elec       q    Type
REMARK                         _______ _______ _______ _____ _____    ______ ____
ROOT
ATOM      1  C   UNL     1       8.249  -7.279   4.123  0.00  0.00    +0.000 C 
ATOM      2  O   UNL     1       8.982  -7.882   4.869  0.00  0.00    +0.000 OA
ATOM      3  O   UNL     1       7.514  -6.675   3.378  0.00  0.00    +0.000 OA
ENDROOT
TORSDOF 0
