REMARK  Name = CT1001562328
REMARK  0 active torsions:
REMARK  status: ('A' for Active; 'I' for Inactive)
REMARK                            x       y       z     vdW  Elec       q    Type
REMARK                         _______ _______ _______ _____ _____    ______ ____
ROOT
ATOM      1  C   UNL     1       7.875  -0.754  -0.243  0.00  0.00    +0.000 C 
ATOM      2  O   UNL     1       8.173   0.369   0.089  0.00  0.00    +0.000 OA
ATOM      3  O   UNL     1       7.574  -1.876  -0.575  0.00  0.00    +0.000 OA
ENDROOT
TORSDOF 0
