REMARK  Name = CT1001562328
REMARK  0 active torsions:
REMARK  status: ('A' for Active; 'I' for Inactive)
REMARK                            x       y       z     vdW  Elec       q    Type
REMARK                         _______ _______ _______ _____ _____    ______ ____
ROOT
ATOM      1  C   UNL     1      -6.943   2.821   8.576  0.00  0.00    +0.000 C 
ATOM      2  O   UNL     1      -6.753   2.611   7.401  0.00  0.00    +0.000 OA
ATOM      3  O   UNL     1      -7.134   3.030   9.751  0.00  0.00    +0.000 OA
ENDROOT
TORSDOF 0
