REMARK  Name = CT1001562328
REMARK  0 active torsions:
REMARK  status: ('A' for Active; 'I' for Inactive)
REMARK                            x       y       z     vdW  Elec       q    Type
REMARK                         _______ _______ _______ _____ _____    ______ ____
ROOT
ATOM      1  C   UNL     1       3.178  -4.193   9.696  0.00  0.00    +0.000 C 
ATOM      2  O   UNL     1       2.925  -3.092   9.268  0.00  0.00    +0.000 OA
ATOM      3  O   UNL     1       3.430  -5.294  10.125  0.00  0.00    +0.000 OA
ENDROOT
TORSDOF 0
