REMARK  Name = CT1001562328
REMARK  0 active torsions:
REMARK  status: ('A' for Active; 'I' for Inactive)
REMARK                            x       y       z     vdW  Elec       q    Type
REMARK                         _______ _______ _______ _____ _____    ______ ____
ROOT
ATOM      1  C   UNL     1      -5.962  -8.627  -3.375  0.00  0.00    +0.000 C 
ATOM      2  O   UNL     1      -7.050  -8.997  -3.748  0.00  0.00    +0.000 OA
ATOM      3  O   UNL     1      -4.874  -8.257  -3.000  0.00  0.00    +0.000 OA
ENDROOT
TORSDOF 0
