REMARK  Name = CT1001562328
REMARK  0 active torsions:
REMARK  status: ('A' for Active; 'I' for Inactive)
REMARK                            x       y       z     vdW  Elec       q    Type
REMARK                         _______ _______ _______ _____ _____    ______ ____
ROOT
ATOM      1  C   UNL     1      -5.965  -8.628  -3.375  0.00  0.00    +0.000 C 
ATOM      2  O   UNL     1      -7.052  -8.998  -3.750  0.00  0.00    +0.000 OA
ATOM      3  O   UNL     1      -4.878  -8.257  -2.999  0.00  0.00    +0.000 OA
ENDROOT
TORSDOF 0
