REMARK  Name = CT1001562328
REMARK  0 active torsions:
REMARK  status: ('A' for Active; 'I' for Inactive)
REMARK                            x       y       z     vdW  Elec       q    Type
REMARK                         _______ _______ _______ _____ _____    ______ ____
ROOT
ATOM      1  C   UNL     1       5.287  -2.261   4.316  0.00  0.00    +0.000 C 
ATOM      2  O   UNL     1       6.056  -1.521   4.883  0.00  0.00    +0.000 OA
ATOM      3  O   UNL     1       4.519  -3.000   3.749  0.00  0.00    +0.000 OA
ENDROOT
TORSDOF 0
