REMARK  Name = CT1001562328
REMARK  0 active torsions:
REMARK  status: ('A' for Active; 'I' for Inactive)
REMARK                            x       y       z     vdW  Elec       q    Type
REMARK                         _______ _______ _______ _____ _____    ______ ____
ROOT
ATOM      1  C   UNL     1      -0.940  -7.723  -4.687  0.00  0.00    +0.000 C 
ATOM      2  O   UNL     1      -1.502  -8.252  -3.758  0.00  0.00    +0.000 OA
ATOM      3  O   UNL     1      -0.376  -7.194  -5.615  0.00  0.00    +0.000 OA
ENDROOT
TORSDOF 0
