REMARK  Name = CT1001562328
REMARK  0 active torsions:
REMARK  status: ('A' for Active; 'I' for Inactive)
REMARK                            x       y       z     vdW  Elec       q    Type
REMARK                         _______ _______ _______ _____ _____    ______ ____
ROOT
ATOM      1  C   UNL     1       9.375  -6.750  -4.379  0.00  0.00    +0.000 C 
ATOM      2  O   UNL     1       8.998  -5.995  -3.514  0.00  0.00    +0.000 OA
ATOM      3  O   UNL     1       9.751  -7.504  -5.244  0.00  0.00    +0.000 OA
ENDROOT
TORSDOF 0
