REMARK  Name = CT1001562328
REMARK  0 active torsions:
REMARK  status: ('A' for Active; 'I' for Inactive)
REMARK                            x       y       z     vdW  Elec       q    Type
REMARK                         _______ _______ _______ _____ _____    ______ ____
ROOT
ATOM      1  C   UNL     1       9.000  -6.030   0.678  0.00  0.00    +0.000 C 
ATOM      2  O   UNL     1       8.997  -4.869   0.342  0.00  0.00    +0.000 OA
ATOM      3  O   UNL     1       9.001  -7.190   1.015  0.00  0.00    +0.000 OA
ENDROOT
TORSDOF 0
