REMARK  Name = CT1001562328
REMARK  0 active torsions:
REMARK  status: ('A' for Active; 'I' for Inactive)
REMARK                            x       y       z     vdW  Elec       q    Type
REMARK                         _______ _______ _______ _____ _____    ______ ____
ROOT
ATOM      1  C   UNL     1      -1.126   7.498   7.905  0.00  0.00    +0.000 C 
ATOM      2  O   UNL     1      -1.496   7.873   8.992  0.00  0.00    +0.000 OA
ATOM      3  O   UNL     1      -0.755   7.123   6.818  0.00  0.00    +0.000 OA
ENDROOT
TORSDOF 0
