REMARK  Name = CT1001562328
REMARK  0 active torsions:
REMARK  status: ('A' for Active; 'I' for Inactive)
REMARK                            x       y       z     vdW  Elec       q    Type
REMARK                         _______ _______ _______ _____ _____    ______ ____
ROOT
ATOM      1  C   UNL     1       5.276  -2.252   4.307  0.00  0.00    +0.000 C 
ATOM      2  O   UNL     1       4.512  -2.994   3.737  0.00  0.00    +0.000 OA
ATOM      3  O   UNL     1       6.039  -1.508   4.877  0.00  0.00    +0.000 OA
ENDROOT
TORSDOF 0
