REMARK  Name = CT1001562328
REMARK  0 active torsions:
REMARK  status: ('A' for Active; 'I' for Inactive)
REMARK                            x       y       z     vdW  Elec       q    Type
REMARK                         _______ _______ _______ _____ _____    ______ ____
ROOT
ATOM      1  C   UNL     1       8.245  -7.300   4.125  0.00  0.00    +0.000 C 
ATOM      2  O   UNL     1       8.993  -7.874   4.881  0.00  0.00    +0.000 OA
ATOM      3  O   UNL     1       7.497  -6.727   3.369  0.00  0.00    +0.000 OA
ENDROOT
TORSDOF 0
