REMARK  Name = CT1001562328
REMARK  0 active torsions:
REMARK  status: ('A' for Active; 'I' for Inactive)
REMARK                            x       y       z     vdW  Elec       q    Type
REMARK                         _______ _______ _______ _____ _____    ______ ____
ROOT
ATOM      1  C   UNL     1      -0.939  -7.717  -4.674  0.00  0.00    +0.000 C 
ATOM      2  O   UNL     1      -0.379  -7.175  -5.597  0.00  0.00    +0.000 OA
ATOM      3  O   UNL     1      -1.498  -8.258  -3.749  0.00  0.00    +0.000 OA
ENDROOT
TORSDOF 0
