REMARK  Name = CT1001562328
REMARK  0 active torsions:
REMARK  status: ('A' for Active; 'I' for Inactive)
REMARK                            x       y       z     vdW  Elec       q    Type
REMARK                         _______ _______ _______ _____ _____    ______ ____
ROOT
ATOM      1  C   UNL     1       2.621   2.233  -0.153  0.00  0.00    +0.000 C 
ATOM      2  O   UNL     1       1.897   2.592  -1.051  0.00  0.00    +0.000 OA
ATOM      3  O   UNL     1       3.345   1.875   0.745  0.00  0.00    +0.000 OA
ENDROOT
TORSDOF 0
