REMARK  Name = CT1001562328
REMARK  0 active torsions:
REMARK  status: ('A' for Active; 'I' for Inactive)
REMARK                            x       y       z     vdW  Elec       q    Type
REMARK                         _______ _______ _______ _____ _____    ______ ____
ROOT
ATOM      1  C   UNL     1       9.373  -1.463   4.539  0.00  0.00    +0.000 C 
ATOM      2  O   UNL     1       9.621  -2.342   3.748  0.00  0.00    +0.000 OA
ATOM      3  O   UNL     1       9.124  -0.583   5.329  0.00  0.00    +0.000 OA
ENDROOT
TORSDOF 0
