REMARK  Name = CT1001562328
REMARK  0 active torsions:
REMARK  status: ('A' for Active; 'I' for Inactive)
REMARK                            x       y       z     vdW  Elec       q    Type
REMARK                         _______ _______ _______ _____ _____    ______ ____
ROOT
ATOM      1  C   UNL     1       5.271  -2.254   4.311  0.00  0.00    +0.000 C 
ATOM      2  O   UNL     1       4.506  -2.997   3.741  0.00  0.00    +0.000 OA
ATOM      3  O   UNL     1       6.034  -1.511   4.880  0.00  0.00    +0.000 OA
ENDROOT
TORSDOF 0
