REMARK  Name = CT1001562328
REMARK  0 active torsions:
REMARK  status: ('A' for Active; 'I' for Inactive)
REMARK                            x       y       z     vdW  Elec       q    Type
REMARK                         _______ _______ _______ _____ _____    ______ ____
ROOT
ATOM      1  C   UNL     1       8.247  -7.252   4.101  0.00  0.00    +0.000 C 
ATOM      2  O   UNL     1       7.555  -6.629   3.332  0.00  0.00    +0.000 OA
ATOM      3  O   UNL     1       8.939  -7.875   4.871  0.00  0.00    +0.000 OA
ENDROOT
TORSDOF 0
