REMARK  Name = CT1001562328
REMARK  0 active torsions:
REMARK  status: ('A' for Active; 'I' for Inactive)
REMARK                            x       y       z     vdW  Elec       q    Type
REMARK                         _______ _______ _______ _____ _____    ______ ____
ROOT
ATOM      1  C   UNL     1       2.616   2.245  -0.148  0.00  0.00    +0.000 C 
ATOM      2  O   UNL     1       3.339   1.875   0.746  0.00  0.00    +0.000 OA
ATOM      3  O   UNL     1       1.894   2.614  -1.043  0.00  0.00    +0.000 OA
ENDROOT
TORSDOF 0
