REMARK  Name = CT1001562328
REMARK  0 active torsions:
REMARK  status: ('A' for Active; 'I' for Inactive)
REMARK                            x       y       z     vdW  Elec       q    Type
REMARK                         _______ _______ _______ _____ _____    ______ ____
ROOT
ATOM      1  C   UNL     1       7.875  -0.751  -0.254  0.00  0.00    +0.000 C 
ATOM      2  O   UNL     1       7.558  -1.875  -0.563  0.00  0.00    +0.000 OA
ATOM      3  O   UNL     1       8.193   0.373   0.056  0.00  0.00    +0.000 OA
ENDROOT
TORSDOF 0
