REMARK  Name = CT1001562328
REMARK  0 active torsions:
REMARK  status: ('A' for Active; 'I' for Inactive)
REMARK                            x       y       z     vdW  Elec       q    Type
REMARK                         _______ _______ _______ _____ _____    ______ ____
ROOT
ATOM      1  C   UNL     1       9.375  -1.493   4.517  0.00  0.00    +0.000 C 
ATOM      2  O   UNL     1       9.512  -2.410   3.744  0.00  0.00    +0.000 OA
ATOM      3  O   UNL     1       9.237  -0.576   5.292  0.00  0.00    +0.000 OA
ENDROOT
TORSDOF 0
