REMARK  Name = CT1001562328
REMARK  0 active torsions:
REMARK  status: ('A' for Active; 'I' for Inactive)
REMARK                            x       y       z     vdW  Elec       q    Type
REMARK                         _______ _______ _______ _____ _____    ______ ____
ROOT
ATOM      1  C   UNL     1       9.383  -1.474   4.555  0.00  0.00    +0.000 C 
ATOM      2  O   UNL     1       9.633  -2.358   3.771  0.00  0.00    +0.000 OA
ATOM      3  O   UNL     1       9.134  -0.590   5.340  0.00  0.00    +0.000 OA
ENDROOT
TORSDOF 0
