REMARK  Name = CT1001562328
REMARK  0 active torsions:
REMARK  status: ('A' for Active; 'I' for Inactive)
REMARK                            x       y       z     vdW  Elec       q    Type
REMARK                         _______ _______ _______ _____ _____    ______ ____
ROOT
ATOM      1  C   UNL     1       3.145  -4.269   9.703  0.00  0.00    +0.000 C 
ATOM      2  O   UNL     1       3.413  -5.369  10.125  0.00  0.00    +0.000 OA
ATOM      3  O   UNL     1       2.876  -3.169   9.283  0.00  0.00    +0.000 OA
ENDROOT
TORSDOF 0
