REMARK  Name = CT1001562328
REMARK  0 active torsions:
REMARK  status: ('A' for Active; 'I' for Inactive)
REMARK                            x       y       z     vdW  Elec       q    Type
REMARK                         _______ _______ _______ _____ _____    ______ ____
ROOT
ATOM      1  C   UNL     1       3.141  -4.200   9.694  0.00  0.00    +0.000 C 
ATOM      2  O   UNL     1       3.454  -5.288  10.115  0.00  0.00    +0.000 OA
ATOM      3  O   UNL     1       2.827  -3.112   9.273  0.00  0.00    +0.000 OA
ENDROOT
TORSDOF 0
