REMARK  Name = CT1001562328
REMARK  0 active torsions:
REMARK  status: ('A' for Active; 'I' for Inactive)
REMARK                            x       y       z     vdW  Elec       q    Type
REMARK                         _______ _______ _______ _____ _____    ______ ____
ROOT
ATOM      1  C   UNL     1       2.620   2.248  -0.151  0.00  0.00    +0.000 C 
ATOM      2  O   UNL     1       1.904   2.621  -1.051  0.00  0.00    +0.000 OA
ATOM      3  O   UNL     1       3.336   1.876   0.747  0.00  0.00    +0.000 OA
ENDROOT
TORSDOF 0
