REMARK  Name = CT1001562328
REMARK  0 active torsions:
REMARK  status: ('A' for Active; 'I' for Inactive)
REMARK                            x       y       z     vdW  Elec       q    Type
REMARK                         _______ _______ _______ _____ _____    ______ ____
ROOT
ATOM      1  C   UNL     1      -1.131   7.496   7.905  0.00  0.00    +0.000 C 
ATOM      2  O   UNL     1      -1.495   7.874   8.993  0.00  0.00    +0.000 OA
ATOM      3  O   UNL     1      -0.768   7.119   6.816  0.00  0.00    +0.000 OA
ENDROOT
TORSDOF 0
