REMARK  Name = CT1001562328
REMARK  0 active torsions:
REMARK  status: ('A' for Active; 'I' for Inactive)
REMARK                            x       y       z     vdW  Elec       q    Type
REMARK                         _______ _______ _______ _____ _____    ______ ____
ROOT
ATOM      1  C   UNL     1       2.621   2.249  -0.134  0.00  0.00    +0.000 C 
ATOM      2  O   UNL     1       1.886   2.623  -1.016  0.00  0.00    +0.000 OA
ATOM      3  O   UNL     1       3.357   1.875   0.749  0.00  0.00    +0.000 OA
ENDROOT
TORSDOF 0
