REMARK  Name = CT1001562328
REMARK  0 active torsions:
REMARK  status: ('A' for Active; 'I' for Inactive)
REMARK                            x       y       z     vdW  Elec       q    Type
REMARK                         _______ _______ _______ _____ _____    ______ ____
ROOT
ATOM      1  C   UNL     1       5.258  -2.251   4.317  0.00  0.00    +0.000 C 
ATOM      2  O   UNL     1       4.502  -3.000   3.746  0.00  0.00    +0.000 OA
ATOM      3  O   UNL     1       6.013  -1.501   4.888  0.00  0.00    +0.000 OA
ENDROOT
TORSDOF 0
