REMARK  Name = CT1001562328
REMARK  0 active torsions:
REMARK  status: ('A' for Active; 'I' for Inactive)
REMARK                            x       y       z     vdW  Elec       q    Type
REMARK                         _______ _______ _______ _____ _____    ______ ____
ROOT
ATOM      1  C   UNL     1      -0.526   7.816  -3.917  0.00  0.00    +0.000 C 
ATOM      2  O   UNL     1      -0.368   6.744  -3.381  0.00  0.00    +0.000 OA
ATOM      3  O   UNL     1      -0.684   8.887  -4.451  0.00  0.00    +0.000 OA
ENDROOT
TORSDOF 0
