REMARK  Name = CT1001562328
REMARK  0 active torsions:
REMARK  status: ('A' for Active; 'I' for Inactive)
REMARK                            x       y       z     vdW  Elec       q    Type
REMARK                         _______ _______ _______ _____ _____    ______ ____
ROOT
ATOM      1  C   UNL     1      -0.951  -7.756  -4.591  0.00  0.00    +0.000 C 
ATOM      2  O   UNL     1      -0.402  -7.261  -5.547  0.00  0.00    +0.000 OA
ATOM      3  O   UNL     1      -1.499  -8.252  -3.636  0.00  0.00    +0.000 OA
ENDROOT
TORSDOF 0
