REMARK  Name = CT1001562328
REMARK  0 active torsions:
REMARK  status: ('A' for Active; 'I' for Inactive)
REMARK                            x       y       z     vdW  Elec       q    Type
REMARK                         _______ _______ _______ _____ _____    ______ ____
ROOT
ATOM      1  C   UNL     1      -1.125   7.500   7.901  0.00  0.00    +0.000 C 
ATOM      2  O   UNL     1      -0.747   7.131   6.814  0.00  0.00    +0.000 OA
ATOM      3  O   UNL     1      -1.504   7.870   8.987  0.00  0.00    +0.000 OA
ENDROOT
TORSDOF 0
