REMARK  Name = CT1001562328
REMARK  0 active torsions:
REMARK  status: ('A' for Active; 'I' for Inactive)
REMARK                            x       y       z     vdW  Elec       q    Type
REMARK                         _______ _______ _______ _____ _____    ______ ____
ROOT
ATOM      1  C   UNL     1       9.376  -1.523   4.500  0.00  0.00    +0.000 C 
ATOM      2  O   UNL     1       9.374  -0.575   5.248  0.00  0.00    +0.000 OA
ATOM      3  O   UNL     1       9.376  -2.472   3.752  0.00  0.00    +0.000 OA
ENDROOT
TORSDOF 0
