REMARK  Name = CT1001562328
REMARK  0 active torsions:
REMARK  status: ('A' for Active; 'I' for Inactive)
REMARK                            x       y       z     vdW  Elec       q    Type
REMARK                         _______ _______ _______ _____ _____    ______ ____
ROOT
ATOM      1  C   UNL     1      -0.937  -7.731  -4.676  0.00  0.00    +0.000 C 
ATOM      2  O   UNL     1      -0.375  -7.212  -5.611  0.00  0.00    +0.000 OA
ATOM      3  O   UNL     1      -1.499  -8.250  -3.741  0.00  0.00    +0.000 OA
ENDROOT
TORSDOF 0
