REMARK  Name = CT1001562328
REMARK  0 active torsions:
REMARK  status: ('A' for Active; 'I' for Inactive)
REMARK                            x       y       z     vdW  Elec       q    Type
REMARK                         _______ _______ _______ _____ _____    ______ ____
ROOT
ATOM      1  C   UNL     1      -1.120   7.501   7.914  0.00  0.00    +0.000 C 
ATOM      2  O   UNL     1      -0.750   7.125   6.827  0.00  0.00    +0.000 OA
ATOM      3  O   UNL     1      -1.490   7.878   9.001  0.00  0.00    +0.000 OA
ENDROOT
TORSDOF 0
