REMARK  Name = CT1001562328
REMARK  0 active torsions:
REMARK  status: ('A' for Active; 'I' for Inactive)
REMARK                            x       y       z     vdW  Elec       q    Type
REMARK                         _______ _______ _______ _____ _____    ______ ____
ROOT
ATOM      1  C   UNL     1       9.002  -6.059   0.599  0.00  0.00    +0.000 C 
ATOM      2  O   UNL     1       9.022  -7.245   0.828  0.00  0.00    +0.000 OA
ATOM      3  O   UNL     1       8.981  -4.873   0.369  0.00  0.00    +0.000 OA
ENDROOT
TORSDOF 0
