REMARK  Name = CT1001562328
REMARK  0 active torsions:
REMARK  status: ('A' for Active; 'I' for Inactive)
REMARK                            x       y       z     vdW  Elec       q    Type
REMARK                         _______ _______ _______ _____ _____    ______ ____
ROOT
ATOM      1  C   UNL     1      -1.125  -9.070  -1.956  0.00  0.00    +0.000 C 
ATOM      2  O   UNL     1      -1.875  -8.127  -1.869  0.00  0.00    +0.000 OA
ATOM      3  O   UNL     1      -0.375 -10.013  -2.043  0.00  0.00    +0.000 OA
ENDROOT
TORSDOF 0
