REMARK  Name = CT1001562328
REMARK  0 active torsions:
REMARK  status: ('A' for Active; 'I' for Inactive)
REMARK                            x       y       z     vdW  Elec       q    Type
REMARK                         _______ _______ _______ _____ _____    ______ ____
ROOT
ATOM      1  C   UNL     1       7.875  -0.753  -0.251  0.00  0.00    +0.000 C 
ATOM      2  O   UNL     1       7.575  -1.876  -0.578  0.00  0.00    +0.000 OA
ATOM      3  O   UNL     1       8.176   0.371   0.076  0.00  0.00    +0.000 OA
ENDROOT
TORSDOF 0
